ITEM: TIMESTEP
0
ITEM: NUMBER OF ATOMS
51
ITEM: BOX BOUNDS pp pp pp
0.000000e+00 7.683200e+01
0.000000e+00 7.338000e+01
0.000000e+00 1.207420e+02
ITEM: ATOMS id type x y z
1 1 38.343269 34.786095 25.393021
2 2 38.024700 33.896042 25.208952
3 3 38.199547 34.113171 25.041147
4 4 38.228832 33.804489 25.152637
5 3 38.199547 34.113171 25.041147
6 5 38.455826 33.799469 25.169424
7 3 38.199547 34.113171 25.041147
8 5 38.455826 33.799469 25.169424
9 3 38.199547 34.113171 25.041147
10 2 38.024700 33.896042 25.208952
11 9 41.418503 33.047192 26.119661
12 10 37.483753 35.377075 26.174244
13 5 38.455826 33.799469 25.169424
14 11 41.142094 32.702602 25.880472
15 12 37.469166 35.580807 26.092026
16 11 41.142094 32.702602 25.880472
17 12 37.469166 35.580807 26.092026
18 5 38.455826 33.799469 25.169424
19 2 38.024700 33.896042 25.208952
20 4 38.228832 33.804489 25.152637
21 3 38.199547 34.113171 25.041147
22 3 38.199547 34.113171 25.041147
23 2 38.024700 33.896042 25.208952
24 4 38.228832 33.804489 25.152637
25 2 38.024700 33.896042 25.208952
26 3 38.199547 34.113171 25.041147
27 6 38.467270 33.787678 25.174263
28 7 32.700809 39.538967 104.483856
29 2 32.172821 39.102604 104.598274
30 3 32.193062 39.127312 104.861473
31 5 31.649624 39.405910 104.754753
32 3 32.193062 39.127312 104.861473
33 2 32.172821 39.102604 104.598274
34 2 32.172821 39.102604 104.598274
35 5 31.649624 39.405910 104.754753
36 3 32.193062 39.127312 104.861473
37 4 31.943913 39.169777 104.700455
38 5 31.649624 39.405910 104.754753
39 5 31.649624 39.405910 104.754753
40 4 31.943913 39.169777 104.700455
41 5 31.649624 39.405910 104.754753
42 3 32.193062 39.127312 104.861473
43 2 32.172821 39.102604 104.598274
44 4 31.943913 39.169777 104.700455
45 2 32.172821 39.102604 104.598274
46 4 31.943913 39.169777 104.700455
47 2 32.172821 39.102604 104.598274
48 5 31.649624 39.405910 104.754753
49 2 32.172821 39.102604 104.598274
50 3 32.193062 39.127312 104.861473
51 8 31.930094 39.174641 104.691315
ITEM: TIMESTEP
1
ITEM: NUMBER OF ATOMS
51
ITEM: BOX BOUNDS pp pp pp
0.000000e+00 7.684100e+01
0.000000e+00 7.349700e+01
0.000000e+00 1.204490e+02
ITEM: ATOMS id type x y z
1 1 38.409203 34.758255 25.272631
2 2 38.091232 33.914753 25.083290
3 3 38.282860 34.120865 24.878160
4 4 38.306011 33.821423 25.033314
5 3 38.282860 34.120865 24.878160
6 5 38.537479 33.813217 25.040197
7 3 38.282860 34.120865 24.878160
8 5 38.537479 33.813217 25.040197
9 3 38.282860 34.120865 24.878160
10 2 38.091232 33.914753 25.083290
11 9 41.097961 33.211338 26.258381
12 10 37.333694 35.222736 26.115726
13 5 38.537479 33.813217 25.040197
14 11 40.883057 32.850502 25.999189
15 12 37.330784 35.415691 26.040478
16 11 40.883057 32.850502 25.999189
17 12 37.330784 35.415691 26.040478
18 5 38.537479 33.813217 25.040197
19 2 38.091232 33.914753 25.083290
20 4 38.306011 33.821423 25.033314
21 3 38.282860 34.120865 24.878160
22 3 38.282860 34.120865 24.878160
23 2 38.091232 33.914753 25.083290
24 4 38.306011 33.821423 25.033314
25 2 38.091232 33.914753 25.083290
26 3 38.282860 34.120865 24.878160
27 6 38.548225 33.801743 25.047222
28 7 32.652546 39.599186 104.374565
29 2 32.041939 39.230186 104.562805
30 3 32.101753 39.227940 104.765182
31 5 31.566345 39.554604 104.714920
32 3 32.101753 39.227940 104.765182
33 2 32.041939 39.230186 104.562805
34 2 32.041939 39.230186 104.562805
35 5 31.566345 39.554604 104.714920
36 3 32.101753 39.227940 104.765182
37 4 31.870525 39.322517 104.660965
38 5 31.566345 39.554604 104.714920
39 5 31.566345 39.554604 104.714920
40 4 31.870525 39.322517 104.660965
41 5 31.566345 39.554604 104.714920
42 3 32.101753 39.227940 104.765182
43 2 32.041939 39.230186 104.562805
44 4 31.870525 39.322517 104.660965
45 2 32.041939 39.230186 104.562805
46 4 31.870525 39.322517 104.660965
47 2 32.041939 39.230186 104.562805
48 5 31.566345 39.554604 104.714920
49 2 32.041939 39.230186 104.562805
50 3 32.101753 39.227940 104.765182
51 8 31.854658 39.328365 104.654785
ITEM: TIMESTEP
2
ITEM: NUMBER OF ATOMS
51
ITEM: BOX BOUNDS pp pp pp
0.000000e+00 7.692000e+01
0.000000e+00 7.344300e+01
0.000000e+00 1.205600e+02
ITEM: ATOMS id type x y z
1 1 38.337498 34.833004 25.285677
2 2 38.035530 33.990082 25.113155
3 3 38.240696 34.170532 24.880856
4 4 38.266804 33.863796 25.040052
5 3 38.240696 34.170532 24.880856
6 5 38.488628 33.864697 25.050755
7 3 38.240696 34.170532 24.880856
8 5 38.488628 33.864697 25.050755
9 3 38.240696 34.170532 24.880856
10 2 38.035530 33.990082 25.113155
11 9 41.245178 33.365116 26.139626
12 10 37.393101 35.493393 26.094997
13 5 38.488628 33.864697 25.050755
14 11 40.973301 32.988182 25.947256
15 12 37.384823 35.694759 25.982489
16 11 40.973301 32.988182 25.947256
17 12 37.384823 35.694759 25.982489
18 5 38.488628 33.864697 25.050755
19 2 38.035530 33.990082 25.113155
20 4 38.266804 33.863796 25.040052
21 3 38.240696 34.170532 24.880856
22 3 38.240696 34.170532 24.880856
23 2 38.035530 33.990082 25.113155
24 4 38.266804 33.863796 25.040052
25 2 38.035530 33.990082 25.113155
26 3 38.240696 34.170532 24.880856
27 6 38.498707 33.855072 25.059401
28 7 32.691494 39.646885 104.442055
29 2 32.128788 39.205982 104.559387
30 3 32.146481 39.232628 104.799377
31 5 31.604824 39.497673 104.732819
32 3 32.146481 39.232628 104.799377
33 2 32.128788 39.205982 104.559387
34 2 32.128788 39.205982 104.559387
35 5 31.604824 39.497673 104.732819
36 3 32.146481 39.232628 104.799377
37 4 31.894356 39.268887 104.662239
38 5 31.604824 39.497673 104.732819
39 5 31.604824 39.497673 104.732819
40 4 31.894356 39.268887 104.662239
41 5 31.604824 39.497673 104.732819
42 3 32.146481 39.232628 104.799377
43 2 32.128788 39.205982 104.559387
44 4 31.894356 39.268887 104.662239
45 2 32.128788 39.205982 104.559387
46 4 31.894356 39.268887 104.662239
47 2 32.128788 39.205982 104.559387
48 5 31.604824 39.497673 104.732819
49 2 32.128788 39.205982 104.559387
50 3 32.146481 39.232628 104.799377
51 8 31.880600 39.273495 104.654579
ITEM: TIMESTEP
3
ITEM: NUMBER OF ATOMS
51
ITEM: BOX BOUNDS pp pp pp
0.000000e+00 7.696200e+01
0.000000e+00 7.329000e+01
0.000000e+00 1.206100e+02
ITEM: ATOMS id type x y z
1 1 38.383453 34.654510 25.344662
2 2 38.057285 33.828033 25.188185
3 3 38.226883 34.011173 24.966906
4 4 38.264019 33.736511 25.133608
5 3 38.226883 34.011173 24.966906
6 5 38.483288 33.735775 25.142509
7 3 38.226883 34.011173 24.966906
8 5 38.483288 33.735775 25.142509
9 3 38.226883 34.011173 24.966906
10 2 38.057285 33.828033 25.188185
11 9 41.146080 33.248508 26.354181
12 10 37.434105 35.268883 26.188122
13 5 38.483288 33.735775 25.142509
14 11 40.897854 32.853912 26.103270
15 12 37.417358 35.472893 26.080042
16 11 40.897854 32.853912 26.103270
17 12 37.417358 35.472893 26.080042
18 5 38.483288 33.735775 25.142509
19 2 38.057285 33.828033 25.188185
20 4 38.264019 33.736511 25.133608
21 3 38.226883 34.011173 24.966906
22 3 38.226883 34.011173 24.966906
23 2 38.057285 33.828033 25.188185
24 4 38.264019 33.736511 25.133608
25 2 38.057285 33.828033 25.188185
26 3 38.226883 34.011173 24.966906
27 6 38.494808 33.725220 25.149826
28 7 32.724461 39.524483 104.527725
29 2 32.140438 39.139191 104.637329
30 3 32.180775 39.138874 104.868271
31 5 31.618988 39.424797 104.814606
32 3 32.180775 39.138874 104.868271
33 2 32.140438 39.139191 104.637329
34 2 32.140438 39.139191 104.637329
35 5 31.618988 39.424797 104.814606
36 3 32.180775 39.138874 104.868271
37 4 31.919155 39.197506 104.752563
38 5 31.618988 39.424797 104.814606
39 5 31.618988 39.424797 104.814606
40 4 31.919155 39.197506 104.752563
41 5 31.618988 39.424797 104.814606
42 3 32.180775 39.138874 104.868271
43 2 32.140438 39.139191 104.637329
44 4 31.919155 39.197506 104.752563
45 2 32.140438 39.139191 104.637329
46 4 31.919155 39.197506 104.752563
47 2 32.140438 39.139191 104.637329
48 5 31.618988 39.424797 104.814606
49 2 32.140438 39.139191 104.637329
50 3 32.180775 39.138874 104.868271
51 8 31.904579 39.203789 104.745346
ITEM: TIMESTEP
4
ITEM: NUMBER OF ATOMS
51
ITEM: BOX BOUNDS pp pp pp
0.000000e+00 7.692100e+01
0.000000e+00 7.321800e+01
0.000000e+00 1.208390e+02
ITEM: ATOMS id type x y z
1 1 38.332058 34.638103 25.438829
2 2 38.016533 33.814247 25.291656
3 3 38.202099 34.006657 25.073198
4 4 38.237480 33.723816 25.236826
5 3 38.202099 34.006657 25.073198
6 5 38.459850 33.730427 25.242727
7 3 38.202099 34.006657 25.073198
8 5 38.459850 33.730427 25.242727
9 3 38.202099 34.006657 25.073198
10 2 38.016533 33.814247 25.291656
11 9 41.136795 33.267029 26.407377
12 10 37.352356 35.179005 26.256205
13 5 38.459850 33.730427 25.242727
14 11 40.878540 32.882149 26.162558
15 12 37.338467 35.383636 26.170078
16 11 40.878540 32.882149 26.162558
17 12 37.338467 35.383636 26.170078
18 5 38.459850 33.730427 25.242727
19 2 38.016533 33.814247 25.291656
20 4 38.237480 33.723816 25.236826
21 3 38.202099 34.006657 25.073198
22 3 38.202099 34.006657 25.073198
23 2 38.016533 33.814247 25.291656
24 4 38.237480 33.723816 25.236826
25 2 38.016533 33.814247 25.291656
26 3 38.202099 34.006657 25.073198
27 6 38.470291 33.720020 25.250805
28 7 32.766972 39.420719 104.510918
29 2 32.203205 39.012707 104.673187
30 3 32.233414 39.028801 104.902130
31 5 31.683506 39.325642 104.812805
32 3 32.233414 39.028801 104.902130
33 2 32.203205 39.012707 104.673187
34 2 32.203205 39.012707 104.673187
35 5 31.683506 39.325642 104.812805
36 3 32.233414 39.028801 104.902130
37 4 31.985142 39.081959 104.778358
38 5 31.683506 39.325642 104.812805
39 5 31.683506 39.325642 104.812805
40 4 31.985142 39.081959 104.778358
41 5 31.683506 39.325642 104.812805
42 3 32.233414 39.028801 104.902130
43 2 32.203205 39.012707 104.673187
44 4 31.985142 39.081959 104.778358
45 2 32.203205 39.012707 104.673187
46 4 31.985142 39.081959 104.778358
47 2 32.203205 39.012707 104.673187
48 5 31.683506 39.325642 104.812805
49 2 32.203205 39.012707 104.673187
50 3 32.233414 39.028801 104.902130
51 8 31.970739 39.087132 104.770958
ITEM: TIMESTEP
5
ITEM: NUMBER OF ATOMS
51
ITEM: BOX BOUNDS pp pp pp
0.000000e+00 7.695700e+01
0.000000e+00 7.341400e+01
0.000000e+00 1.205300e+02
ITEM: ATOMS id type x y z
1 1 38.383995 34.625931 25.244516
2 2 38.038345 33.776653 25.124235
3 3 38.276955 33.955990 24.890835
4 4 38.271820 33.647724 25.074636
5 3 38.276955 33.955990 24.890835
6 5 38.491711 33.648918 25.080538
7 3 38.276955 33.955990 24.890835
8 5 38.491711 33.648918 25.080538
9 3 38.276955 33.955990 24.890835
10 2 38.038345 33.776653 25.124235
11 9 41.096455 33.251175 26.280918
12 10 37.440437 35.291515 26.004951
13 5 38.491711 33.648918 25.080538
14 11 40.815556 32.855850 26.071644
15 12 37.447430 35.493542 25.912203
16 11 40.815556 32.855850 26.071644
17 12 37.447430 35.493542 25.912203
18 5 38.491711 33.648918 25.080538
19 2 38.038345 33.776653 25.124235
20 4 38.271820 33.647724 25.074636
21 3 38.276955 33.955990 24.890835
22 3 38.276955 33.955990 24.890835
23 2 38.038345 33.776653 25.124235
24 4 38.271820 33.647724 25.074636
25 2 38.038345 33.776653 25.124235
26 3 38.276955 33.955990 24.890835
27 6 38.500156 33.639309 25.089815
28 7 32.725060 39.591129 104.443695
29 2 32.156921 39.207958 104.580444
30 3 32.186314 39.201664 104.802864
31 5 31.634785 39.510075 104.723038
32 3 32.186314 39.201664 104.802864
33 2 32.156921 39.207958 104.580444
34 2 32.156921 39.207958 104.580444
35 5 31.634785 39.510075 104.723038
36 3 32.186314 39.201664 104.802864
37 4 31.937922 39.273441 104.683075
38 5 31.634785 39.510075 104.723038
39 5 31.634785 39.510075 104.723038
40 4 31.937922 39.273441 104.683075
41 5 31.634785 39.510075 104.723038
42 3 32.186314 39.201664 104.802864
43 2 32.156921 39.207958 104.580444
44 4 31.937922 39.273441 104.683075
45 2 32.156921 39.207958 104.580444
46 4 31.937922 39.273441 104.683075
47 2 32.156921 39.207958 104.580444
48 5 31.634785 39.510075 104.723038
49 2 32.156921 39.207958 104.580444
50 3 32.186314 39.201664 104.802864
51 8 31.923832 39.279610 104.675148
ITEM: TIMESTEP
6
ITEM: NUMBER OF ATOMS
51
ITEM: BOX BOUNDS pp pp pp
0.000000e+00 7.695400e+01
0.000000e+00 7.341900e+01
0.000000e+00 1.204330e+02
ITEM: ATOMS id type x y z
1 1 38.403561 34.602642 25.277519
2 2 38.045895 33.800106 25.156652
3 3 38.260529 33.964954 24.902700
4 4 38.266178 33.664539 25.087444
5 3 38.260529 33.964954 24.902700
6 5 38.484825 33.657307 25.098667
7 3 38.260529 33.964954 24.902700
8 5 38.484825 33.657307 25.098667
9 3 38.260529 33.964954 24.902700
10 2 38.045895 33.800106 25.156652
11 9 41.202633 33.247082 26.057135
12 10 37.446926 35.262325 26.088409
13 5 38.484825 33.657307 25.098667
14 11 40.927166 32.848965 25.879028
15 12 37.436436 35.464195 26.000423
16 11 40.927166 32.848965 25.879028
17 12 37.436436 35.464195 26.000423
18 5 38.484825 33.657307 25.098667
19 2 38.045895 33.800106 25.156652
20 4 38.266178 33.664539 25.087444
21 3 38.260529 33.964954 24.902700
22 3 38.260529 33.964954 24.902700
23 2 38.045895 33.800106 25.156652
24 4 38.266178 33.664539 25.087444
25 2 38.045895 33.800106 25.156652
26 3 38.260529 33.964954 24.902700
27 6 38.494122 33.648403 25.107618
28 7 32.706692 39.552822 104.404610
29 2 32.173851 39.222221 104.509178
30 3 32.157104 39.190872 104.768997
31 5 31.604082 39.459576 104.678444
32 3 32.157104 39.190872 104.768997
33 2 32.173851 39.222221 104.509178
34 2 32.173851 39.222221 104.509178
35 5 31.604082 39.459576 104.678444
36 3 32.157104 39.190872 104.768997
37 4 31.912462 39.227440 104.616516
38 5 31.604082 39.459576 104.678444
39 5 31.604082 39.459576 104.678444
40 4 31.912462 39.227440 104.616516
41 5 31.604082 39.459576 104.678444
42 3 32.157104 39.190872 104.768997
43 2 32.173851 39.222221 104.509178
44 4 31.912462 39.227440 104.616516
45 2 32.173851 39.222221 104.509178
46 4 31.912462 39.227440 104.616516
47 2 32.173851 39.222221 104.509178
48 5 31.604082 39.459576 104.678444
49 2 32.173851 39.222221 104.509178
50 3 32.157104 39.190872 104.768997
51 8 31.900579 39.235718 104.607384
ITEM: TIMESTEP
7
ITEM: NUMBER OF ATOMS
51
ITEM: BOX BOUNDS pp pp pp
0.000000e+00 7.691199e+01
0.000000e+00 7.332600e+01
0.000000e+00 1.207310e+02
ITEM: ATOMS id type x y z
1 1 38.329868 34.669979 25.422970
2 2 38.012760 33.844826 25.288357
3 3 38.207546 33.999172 25.040758
4 4 38.227268 33.715443 25.208031
5 3 38.207546 33.999172 25.040758
6 5 38.448448 33.704819 25.228107
7 3 38.207546 33.999172 25.040758
8 5 38.448448 33.704819 25.228107
9 3 38.207546 33.999172 25.040758
10 2 38.012760 33.844826 25.288357
11 9 41.224499 33.323578 26.242516
12 10 37.397926 35.352409 26.202311
13 5 38.448448 33.704819 25.228107
14 11 40.935287 32.932083 26.043957
15 12 37.391712 35.550240 26.105625
16 11 40.935287 32.932083 26.043957
17 12 37.391712 35.550240 26.105625
18 5 38.448448 33.704819 25.228107
19 2 38.012760 33.844826 25.288357
20 4 38.227268 33.715443 25.208031
21 3 38.207546 33.999172 25.040758
22 3 38.207546 33.999172 25.040758
23 2 38.012760 33.844826 25.288357
24 4 38.227268 33.715443 25.208031
25 2 38.012760 33.844826 25.288357
26 3 38.207546 33.999172 25.040758
27 6 38.459023 33.695889 25.236830
28 7 32.742924 39.532692 104.466232
29 2 32.188080 39.130028 104.615448
30 3 32.216892 39.129593 104.856796
31 5 31.653582 39.401131 104.808830
32 3 32.216892 39.129593 104.856796
33 2 32.188080 39.130028 104.615448
34 2 32.188080 39.130028 104.615448
35 5 31.653582 39.401131 104.808830
36 3 32.216892 39.129593 104.856796
37 4 31.950090 39.165428 104.747025
38 5 31.653582 39.401131 104.808830
39 5 31.653582 39.401131 104.808830
40 4 31.950090 39.165428 104.747025
41 5 31.653582 39.401131 104.808830
42 3 32.216892 39.129593 104.856796
43 2 32.188080 39.130028 104.615448
44 4 31.950090 39.165428 104.747025
45 2 32.188080 39.130028 104.615448
46 4 31.950090 39.165428 104.747025
47 2 32.188080 39.130028 104.615448
48 5 31.653582 39.401131 104.808830
49 2 32.188080 39.130028 104.615448
50 3 32.216892 39.129593 104.856796
51 8 31.936220 39.171494 104.739243
ITEM: TIMESTEP
8
ITEM: NUMBER OF ATOMS
51
ITEM: BOX BOUNDS pp pp pp
0.000000e+00 7.689500e+01
0.000000e+00 7.350000e+01
0.000000e+00 1.204160e+02
ITEM: ATOMS id type x y z
1 1 38.377213 34.837990 25.252117
2 2 38.099987 33.947334 25.088455
3 3 38.283733 34.154633 24.872236
4 4 38.326618 33.840916 25.015953
5 3 38.283733 34.154633 24.872236
6 5 38.547943 33.835789 25.032902
7 3 38.283733 34.154633 24.872236
8 5 38.547943 33.835789 25.032902
9 3 38.283733 34.154633 24.872236
10 2 38.099987 33.947334 25.088455
11 9 41.303638 33.288227 26.168850
12 10 37.420319 35.396404 26.073950
13 5 38.547943 33.835789 25.032902
14 11 41.039066 32.906521 25.929005
15 12 37.416630 35.610455 25.965385
16 11 41.039066 32.906521 25.929005
17 12 37.416630 35.610455 25.965385
18 5 38.547943 33.835789 25.032902
19 2 38.099987 33.947334 25.088455
20 4 38.326618 33.840916 25.015953
21 3 38.283733 34.154633 24.872236
22 3 38.283733 34.154633 24.872236
23 2 38.099987 33.947334 25.088455
24 4 38.326618 33.840916 25.015953
25 2 38.099987 33.947334 25.088455
26 3 38.283733 34.154633 24.872236
27 6 38.558819 33.824932 25.040051
28 7 32.647583 39.660797 104.281761
29 2 32.135201 39.289410 104.359901
30 3 32.103821 39.264992 104.619987
31 5 31.612978 39.594040 104.501938
32 3 32.103821 39.264992 104.619987
33 2 32.135201 39.289410 104.359901
34 2 32.135201 39.289410 104.359901
35 5 31.612978 39.594040 104.501938
36 3 32.103821 39.264992 104.619987
37 4 31.921768 39.366798 104.450027
38 5 31.612978 39.594040 104.501938
39 5 31.612978 39.594040 104.501938
40 4 31.921768 39.366798 104.450027
41 5 31.612978 39.594040 104.501938
42 3 32.103821 39.264992 104.619987
43 2 32.135201 39.289410 104.359901
44 4 31.921768 39.366798 104.450027
45 2 32.135201 39.289410 104.359901
46 4 31.921768 39.366798 104.450027
47 2 32.135201 39.289410 104.359901
48 5 31.612978 39.594040 104.501938
49 2 32.135201 39.289410 104.359901
50 3 32.103821 39.264992 104.619987
51 8 31.910143 39.373825 104.440857
ITEM: TIMESTEP
9
ITEM: NUMBER OF ATOMS
51
ITEM: BOX BOUNDS pp pp pp
0.000000e+00 7.689400e+01
0.000000e+00 7.359600e+01
0.000000e+00 1.203350e+02
ITEM: ATOMS id type x y z
1 1 38.374222 34.834595 25.217104
2 2 38.064125 33.988899 25.051367
3 3 38.259621 34.205940 24.801559
4 4 38.289658 33.904896 24.967546
5 3 38.259621 34.205940 24.801559
6 5 38.503551 33.907475 24.971657
7 3 38.259621 34.205940 24.801559
8 5 38.503551 33.907475 24.971657
9 3 38.259621 34.205940 24.801559
10 2 38.064125 33.988899 25.051367
11 9 41.230583 33.306313 26.069506
12 10 37.424732 35.470898 25.998672
13 5 38.503551 33.907475 24.971657
14 11 40.979576 32.940472 25.845621
15 12 37.409801 35.661625 25.901173
16 11 40.979576 32.940472 25.845621
17 12 37.409801 35.661625 25.901173
18 5 38.503551 33.907475 24.971657
19 2 38.064125 33.988899 25.051367
20 4 38.289658 33.904896 24.967546
21 3 38.259621 34.205940 24.801559
22 3 38.259621 34.205940 24.801559
23 2 38.064125 33.988899 25.051367
24 4 38.289658 33.904896 24.967546
25 2 38.064125 33.988899 25.051367
26 3 38.259621 34.205940 24.801559
27 6 38.514046 33.896282 24.979572
28 7 32.737694 39.683109 104.295631
29 2 32.223969 39.354439 104.420616
30 3 32.200520 39.316544 104.690651
31 5 31.730984 39.682766 104.548729
32 3 32.200520 39.316544 104.690651
33 2 32.223969 39.354439 104.420616
34 2 32.223969 39.354439 104.420616
35 5 31.730984 39.682766 104.548729
36 3 32.200520 39.316544 104.690651
37 4 32.028530 39.441051 104.515907
38 5 31.730984 39.682766 104.548729
39 5 31.730984 39.682766 104.548729
40 4 32.028530 39.441051 104.515907
41 5 31.730984 39.682766 104.548729
42 3 32.200520 39.316544 104.690651
43 2 32.223969 39.354439 104.420616
44 4 32.028530 39.441051 104.515907
45 2 32.223969 39.354439 104.420616
46 4 32.028530 39.441051 104.515907
47 2 32.223969 39.354439 104.420616
48 5 31.730984 39.682766 104.548729
49 2 32.223969 39.354439 104.420616
50 3 32.200520 39.316544 104.690651
51 8 32.016758 39.448997 104.506844
ITEM: TIMESTEP
10
ITEM: NUMBER OF ATOMS
51
ITEM: BOX BOUNDS pp pp pp
0.000000e+00 7.701900e+01
0.000000e+00 7.361900e+01
0.000000e+00 1.199070e+02
ITEM: ATOMS id type x y z
1 1 38.395775 34.833591 24.956980
2 2 38.058292 34.038723 24.803185
3 3 38.261448 34.201954 24.556202
4 4 38.288113 33.918003 24.723894
5 3 38.261448 34.201954 24.556202
6 5 38.512020 33.913555 24.738506
7 3 38.261448 34.201954 24.556202
8 5 38.512020 33.913555 24.738506
9 3 38.261448 34.201954 24.556202
10 2 38.058292 34.038723 24.803185
11 9 41.161472 33.406929 25.886681
12 10 37.420383 35.536770 25.773071
13 5 38.512020 33.913555 24.738506
14 11 40.914143 33.032715 25.683641
15 12 37.412312 35.720772 25.649639
16 11 40.914143 33.032715 25.683641
17 12 37.412312 35.720772 25.649639
18 5 38.512020 33.913555 24.738506
19 2 38.058292 34.038723 24.803185
20 4 38.288113 33.918003 24.723894
21 3 38.261448 34.201954 24.556202
22 3 38.261448 34.201954 24.556202
23 2 38.058292 34.038723 24.803185
24 4 38.288113 33.918003 24.723894
25 2 38.058292 34.038723 24.803185
26 3 38.261448 34.201954 24.556202
27 6 38.521790 33.903603 24.747093
28 7 32.706768 39.731289 104.141045
29 2 32.140461 39.349583 104.273872
30 3 32.164501 39.323536 104.503319
31 5 31.649467 39.670319 104.426834
32 3 32.164501 39.323536 104.503319
33 2 32.140461 39.349583 104.273872
34 2 32.140461 39.349583 104.273872
35 5 31.649467 39.670319 104.426834
36 3 32.164501 39.323536 104.503319
37 4 31.946323 39.432072 104.369240
38 5 31.649467 39.670319 104.426834
39 5 31.649467 39.670319 104.426834
40 4 31.946323 39.432072 104.369240
41 5 31.649467 39.670319 104.426834
42 3 32.164501 39.323536 104.503319
43 2 32.140461 39.349583 104.273872
44 4 31.946323 39.432072 104.369240
45 2 32.140461 39.349583 104.273872
46 4 31.946323 39.432072 104.369240
47 2 32.140461 39.349583 104.273872
48 5 31.649467 39.670319 104.426834
49 2 32.140461 39.349583 104.273872
50 3 32.164501 39.323536 104.503319
51 8 31.932079 39.439663 104.361137
ITEM: TIMESTEP
11
ITEM: NUMBER OF ATOMS
51
ITEM: BOX BOUNDS pp pp pp
0.000000e+00 7.708900e+01
0.000000e+00 7.364100e+01
0.000000e+00 1.199310e+02
ITEM: ATOMS id type x y z
1 1 38.522682 34.848236 24.896492
2 2 38.224064 34.003098 24.793221
3 3 38.419827 34.181080 24.545832
4 4 38.448338 33.903767 24.740517
5 3 38.419827 34.181080 24.545832
6 5 38.676609 33.898762 24.754011
7 3 38.419827 34.181080 24.545832
8 5 38.676609 33.898762 24.754011
9 3 38.419827 34.181080 24.545832
10 2 38.224064 34.003098 24.793221
11 9 41.355858 33.513466 25.896294
12 10 37.475929 35.463081 25.697050
13 5 38.676609 33.898762 24.754011
14 11 41.142406 33.109539 25.662493
15 12 37.458870 35.661087 25.608274
16 11 41.142406 33.109539 25.662493
17 12 37.458870 35.661087 25.608274
18 5 38.676609 33.898762 24.754011
19 2 38.224064 34.003098 24.793221
20 4 38.448338 33.903767 24.740517
21 3 38.419827 34.181080 24.545832
22 3 38.419827 34.181080 24.545832
23 2 38.224064 34.003098 24.793221
24 4 38.448338 33.903767 24.740517
25 2 38.224064 34.003098 24.793221
26 3 38.419827 34.181080 24.545832
27 6 38.687557 33.888725 24.762547
28 7 32.776180 39.745567 104.076729
29 2 32.214684 39.384674 104.177277
30 3 32.200241 39.353123 104.443314
31 5 31.734352 39.707901 104.322624
32 3 32.200241 39.353123 104.443314
33 2 32.214684 39.384674 104.177277
34 2 32.214684 39.384674 104.177277
35 5 31.734352 39.707901 104.322624
36 3 32.200241 39.353123 104.443314
37 4 32.023243 39.470016 104.266975
38 5 31.734352 39.707901 104.322624
39 5 31.734352 39.707901 104.322624
40 4 32.023243 39.470016 104.266975
41 5 31.734352 39.707901 104.322624
42 3 32.200241 39.353123 104.443314
43 2 32.214684 39.384674 104.177277
44 4 32.023243 39.470016 104.266975
45 2 32.214684 39.384674 104.177277
46 4 32.023243 39.470016 104.266975
47 2 32.214684 39.384674 104.177277
48 5 31.734352 39.707901 104.322624
49 2 32.214684 39.384674 104.177277
50 3 32.200241 39.353123 104.443314
51 8 32.011230 39.477676 104.257980
ITEM: TIMESTEP
12
ITEM: NUMBER OF ATOMS
51
ITEM: BOX BOUNDS pp pp pp
0.000000e+00 7.711800e+01
0.000000e+00 7.360900e+01
0.000000e+00 1.200380e+02
ITEM: ATOMS id type x y z
1 1 38.527992 34.795834 24.986181
2 2 38.206795 33.934185 24.831169
3 3 38.421593 34.130936 24.611919
4 4 38.436794 33.834114 24.773533
5 3 38.421593 34.130936 24.611919
6 5 38.653278 33.830406 24.781216
7 3 38.421593 34.130936 24.611919
8 5 38.653278 33.830406 24.781216
9 3 38.421593 34.130936 24.611919
10 2 38.206795 33.934185 24.831169
11 9 41.229774 33.140732 26.033680
12 10 37.585434 35.458694 25.804539
13 5 38.653278 33.830406 24.781216
14 11 40.983047 32.796638 25.793961
15 12 37.587250 35.648735 25.678810
16 11 40.983047 32.796638 25.793961
17 12 37.587250 35.648735 25.678810
18 5 38.653278 33.830406 24.781216
19 2 38.206795 33.934185 24.831169
20 4 38.436794 33.834114 24.773533
21 3 38.421593 34.130936 24.611919
22 3 38.421593 34.130936 24.611919
23 2 38.206795 33.934185 24.831169
24 4 38.436794 33.834114 24.773533
25 2 38.206795 33.934185 24.831169
26 3 38.421593 34.130936 24.611919
27 6 38.662712 33.819008 24.788567
28 7 32.828697 39.648167 104.134125
29 2 32.308884 39.293423 104.232994
30 3 32.304955 39.251945 104.494781
31 5 31.831244 39.610149 104.379135
32 3 32.304955 39.251945 104.494781
33 2 32.308884 39.293423 104.232994
34 2 32.308884 39.293423 104.232994
35 5 31.831244 39.610149 104.379135
36 3 32.304955 39.251945 104.494781
37 4 32.132938 39.374020 104.325203
38 5 31.831244 39.610149 104.379135
39 5 31.831244 39.610149 104.379135
40 4 32.132938 39.374020 104.325203
41 5 31.831244 39.610149 104.379135
42 3 32.304955 39.251945 104.494781
43 2 32.308884 39.293423 104.232994
44 4 32.132938 39.374020 104.325203
45 2 32.308884 39.293423 104.232994
46 4 32.132938 39.374020 104.325203
47 2 32.308884 39.293423 104.232994
48 5 31.831244 39.610149 104.379135
49 2 32.308884 39.293423 104.232994
50 3 32.304955 39.251945 104.494781
51 8 32.120026 39.381989 104.316238
ITEM: TIMESTEP
13
ITEM: NUMBER OF ATOMS
51
ITEM: BOX BOUNDS pp pp pp
0.000000e+00 7.709100e+01
0.000000e+00 7.360100e+01
0.000000e+00 1.199820e+02
ITEM: ATOMS id type x y z
1 1 38.430367 34.805489 24.994118
2 2 38.165531 33.951786 24.817987
3 3 38.328320 34.164898 24.630264
4 4 38.373390 33.872200 24.773256
5 3 38.328320 34.164898 24.630264
6 5 38.598736 33.873356 24.789698
7 3 38.328320 34.164898 24.630264
8 5 38.598736 33.873356 24.789698
9 3 38.328320 34.164898 24.630264
10 2 38.165531 33.951786 24.817987
11 9 41.161015 33.196033 26.016922
12 10 37.449539 35.409008 25.843714
13 5 38.598736 33.873356 24.789698
14 11 40.976021 32.854053 25.745079
15 12 37.441353 35.614788 25.733105
16 11 40.976021 32.854053 25.745079
17 12 37.441353 35.614788 25.733105
18 5 38.598736 33.873356 24.789698
19 2 38.165531 33.951786 24.817987
20 4 38.373390 33.872200 24.773256
21 3 38.328320 34.164898 24.630264
22 3 38.328320 34.164898 24.630264
23 2 38.165531 33.951786 24.817987
24 4 38.373390 33.872200 24.773256
25 2 38.165531 33.951786 24.817987
26 3 38.328320 34.164898 24.630264
27 6 38.610703 33.861977 24.796425
28 7 32.788177 39.734245 104.178001
29 2 32.238918 39.400482 104.261909
30 3 32.231197 39.360699 104.516800
31 5 31.775023 39.738232 104.404060
32 3 32.231197 39.360699 104.516800
33 2 32.238918 39.400482 104.261909
34 2 32.238918 39.400482 104.261909
35 5 31.775023 39.738232 104.404060
36 3 32.231197 39.360699 104.516800
37 4 32.058548 39.486721 104.352859
38 5 31.775023 39.738232 104.404060
39 5 31.775023 39.738232 104.404060
40 4 32.058548 39.486721 104.352859
41 5 31.775023 39.738232 104.404060
42 3 32.231197 39.360699 104.516800
43 2 32.238918 39.400482 104.261909
44 4 32.058548 39.486721 104.352859
45 2 32.238918 39.400482 104.261909
46 4 32.058548 39.486721 104.352859
47 2 32.238918 39.400482 104.261909
48 5 31.775023 39.738232 104.404060
49 2 32.238918 39.400482 104.261909
50 3 32.231197 39.360699 104.516800
51 8 32.046356 39.495518 104.344261
ITEM: TIMESTEP
14
ITEM: NUMBER OF ATOMS
51
ITEM: BOX BOUNDS pp pp pp
0.000000e+00 7.698400e+01
0.000000e+00 7.364500e+01
0.000000e+00 1.201560e+02
ITEM: ATOMS id type x y z
1 1 38.378937 34.829433 25.020098
2 2 38.057949 33.991222 24.829414
3 3 38.236698 34.173756 24.611311
4 4 38.271381 33.893513 24.773609
5 3 38.236698 34.173756 24.611311
6 5 38.489540 33.885902 24.798836
7 3 38.236698 34.173756 24.611311
8 5 38.489540 33.885902 24.798836
9 3 38.236698 34.173756 24.611311
10 2 38.057949 33.991222 24.829414
11 9 40.983559 33.534626 25.881296
12 10 37.428249 35.449806 25.787836
13 5 38.489540 33.885902 24.798836
14 11 40.774914 33.116562 25.660948
15 12 37.429222 35.651970 25.701338
16 11 40.774914 33.116562 25.660948
17 12 37.429222 35.651970 25.701338
18 5 38.489540 33.885902 24.798836
19 2 38.057949 33.991222 24.829414
20 4 38.271381 33.893513 24.773609
21 3 38.236698 34.173756 24.611311
22 3 38.236698 34.173756 24.611311
23 2 38.057949 33.991222 24.829414
24 4 38.271381 33.893513 24.773609
25 2 38.057949 33.991222 24.829414
26 3 38.236698 34.173756 24.611311
27 6 38.500149 33.875675 24.806494
28 7 32.774292 39.707600 104.175262
29 2 32.187157 39.297756 104.307755
30 3 32.228325 39.284847 104.538177
31 5 31.717754 39.641460 104.420906
32 3 32.228325 39.284847 104.538177
33 2 32.187157 39.297756 104.307755
34 2 32.187157 39.297756 104.307755
35 5 31.717754 39.641460 104.420906
36 3 32.228325 39.284847 104.538177
37 4 32.008766 39.392197 104.380089
38 5 31.717754 39.641460 104.420906
39 5 31.717754 39.641460 104.420906
40 4 32.008766 39.392197 104.380089
41 5 31.717754 39.641460 104.420906
42 3 32.228325 39.284847 104.538177
43 2 32.187157 39.297756 104.307755
44 4 32.008766 39.392197 104.380089
45 2 32.187157 39.297756 104.307755
46 4 32.008766 39.392197 104.380089
47 2 32.187157 39.297756 104.307755
48 5 31.717754 39.641460 104.420906
49 2 32.187157 39.297756 104.307755
50 3 32.228325 39.284847 104.538177
51 8 31.993803 39.398624 104.372650
ITEM: TIMESTEP
15
ITEM: NUMBER OF ATOMS
51
ITEM: BOX BOUNDS pp pp pp
0.000000e+00 7.696100e+01
0.000000e+00 7.363600e+01
0.000000e+00 1.200850e+02
ITEM: ATOMS id type x y z
1 1 38.399147 34.840744 25.084442
2 2 38.119877 34.049545 24.905926
3 3 38.304783 34.214531 24.667250
4 4 38.336956 33.941696 24.834957