ITEM: TIMESTEP
0
ITEM: NUMBER OF ATOMS
51
ITEM: BOX BOUNDS pp pp pp
0.000000e+00 7.683200e+01
0.000000e+00 7.338000e+01
0.000000e+00 1.207420e+02
ITEM: ATOMS id type x y z
1 1 38.343269 34.786095 25.393021
2 2 41.483837 35.453808 28.792631
3 3 44.169971 37.437588 32.687870
4 4 42.562275 40.577614 36.862888
5 3 40.508240 43.853256 40.053364
6 5 37.204903 44.898258 42.594910
7 3 32.727436 43.440224 45.109444
8 5 29.914394 39.978512 47.758747
9 3 29.659176 35.989830 50.470135
10 2 32.811020 32.338535 53.522064
11 9 38.078728 26.644543 51.300865
12 10 39.628193 25.722486 59.819218
13 5 41.192383 32.784370 61.906708
14 11 51.086838 33.132347 62.727493
15 12 51.245480 38.997589 67.471069
16 11 47.832745 43.891155 66.654884
17 12 42.848949 50.434994 67.507561
18 5 36.753929 43.883587 69.170090
19 2 34.404533 44.068806 73.382477
20 4 31.786989 43.033520 77.622292
21 3 29.960546 39.424911 81.144539
22 3 31.338144 35.437542 83.972092
23 2 34.322617 33.371891 87.485580
24 4 36.251736 33.360298 91.438423
25 2 38.939968 35.553154 95.252594
26 3 42.819775 38.590862 99.270058
27 6 42.828220 42.352116 102.888977
28 7 32.700809 39.538967 104.483856
29 2 30.842846 41.892822 99.540634
30 3 31.582417 44.625187 95.835793
31 5 35.268452 44.951141 92.256721
32 3 39.281483 43.560837 88.636368
33 2 41.922775 40.277142 84.736855
34 2 41.447758 37.050331 81.330231
35 5 39.042305 33.825676 78.642830
36 3 35.392387 32.499874 75.759964
37 4 31.217672 34.363884 72.290428
38 5 29.442884 36.791946 68.898468
39 5 29.619745 39.899590 64.878120
40 4 33.121128 41.937546 61.825375
41 5 37.571095 42.189278 59.001907
42 3 40.576401 40.654377 55.983932
43 2 41.036316 37.708088 52.197029
44 4 39.967560 34.318146 48.584442
45 2 37.455814 32.950603 44.595253
46 4 34.407017 33.696968 40.530350
47 2 30.639345 36.910252 38.158630
48 5 29.139236 40.643478 36.089363
49 2 30.523968 44.092735 33.642506
50 3 33.291538 45.897972 30.019972
51 8 38.180836 45.345596 26.977304
ITEM: TIMESTEP
1
ITEM: NUMBER OF ATOMS
51
ITEM: BOX BOUNDS pp pp pp
0.000000e+00 7.684100e+01
0.000000e+00 7.349700e+01
0.000000e+00 1.204490e+02
ITEM: ATOMS id type x y z
1 1 38.409203 34.758255 25.272631
2 2 39.923080 34.580845 29.205797
3 3 42.775261 37.389515 33.053474
4 4 42.360626 40.796154 36.829765
5 3 40.537067 44.105484 39.909302
6 5 36.680645 45.403572 41.785591
7 3 32.104340 43.718399 43.569313
8 5 29.111721 39.807156 46.176037
9 3 27.842442 36.968437 49.417030
10 2 29.649038 33.499393 53.440670
11 9 34.014507 26.666348 52.189480
12 10 36.515804 26.087835 60.677185
13 5 37.955715 32.799339 60.036224
14 11 46.587700 32.413891 62.411476
15 12 49.037380 37.920353 67.173950
16 11 45.862766 42.713974 66.061691
17 12 41.881454 49.657936 67.590500
18 5 35.028564 44.316204 71.378922
19 2 31.481882 44.092342 74.498116
20 4 28.289156 42.579956 78.284866
21 3 26.739433 38.655418 81.149521
22 3 27.819506 35.854950 84.426987
23 2 31.902971 34.400555 87.735565
24 4 35.220493 34.609020 91.099922
25 2 38.607754 37.037201 94.328087
26 3 42.886288 38.986214 98.804276
27 6 42.886078 42.316151 102.744530
28 7 32.652546 39.599186 104.374565
29 2 31.279806 42.708817 99.555031
30 3 31.391314 45.405071 95.881058
31 5 34.282715 46.402557 91.858116
32 3 37.072033 44.787407 87.851944
33 2 38.025349 41.111885 84.413300
34 2 37.981331 36.632595 81.580635
35 5 35.416435 33.510235 78.919579
36 3 32.609219 32.474880 75.354088
37 4 29.513775 34.115990 71.925812
38 5 28.259411 37.647030 68.534554
39 5 29.142637 41.402580 65.284706
40 4 32.151432 42.789814 61.828262
41 5 36.552090 41.971397 59.372017
42 3 38.919449 40.272778 55.900936
43 2 39.105896 37.016758 51.918949
44 4 38.376987 33.311100 47.761707
45 2 35.743198 32.149014 44.165680
46 4 33.167095 33.762787 40.622955
47 2 29.839655 37.139488 37.950802
48 5 28.752510 40.947929 35.620720
49 2 30.545572 44.665649 33.516235
50 3 33.075977 46.142616 29.596575
51 8 38.246666 45.396057 26.852785
ITEM: TIMESTEP
2
ITEM: NUMBER OF ATOMS
51
ITEM: BOX BOUNDS pp pp pp
0.000000e+00 7.692000e+01
0.000000e+00 7.344300e+01
0.000000e+00 1.205600e+02
ITEM: ATOMS id type x y z
1 1 38.337498 34.833004 25.285677
2 2 40.793594 35.804203 28.761810
3 3 43.502472 37.915562 33.014900
4 4 41.969818 40.307423 36.723896
5 3 39.493752 44.084469 39.230240
6 5 35.326496 44.909809 41.253651
7 3 30.843559 43.409927 43.247334
8 5 28.825832 40.615025 46.345718
9 3 28.366295 37.157005 50.150253
10 2 30.623854 34.139095 54.529953
11 9 35.408756 27.188499 54.588081
12 10 37.766842 27.292620 62.975979
13 5 38.088993 34.765312 61.169170
14 11 46.660400 36.884480 62.856300
15 12 48.220280 39.934544 69.733963
16 11 42.332867 44.237041 71.822266
17 12 39.833649 50.314869 67.487068
18 5 33.116844 44.438087 69.862526
19 2 29.252827 43.849209 74.041794
20 4 26.632294 41.489601 77.166405
21 3 26.080868 38.136467 80.209663
22 3 27.713594 35.446781 83.785469
23 2 31.779793 34.431313 87.292068
24 4 35.593288 34.425247 90.806786
25 2 38.913544 36.717823 94.723244
26 3 43.054474 38.849838 99.048004
27 6 42.987476 42.301773 102.837326
28 7 32.691494 39.646885 104.442055
29 2 31.131054 43.037498 99.837891
30 3 31.469641 45.689228 96.075500
31 5 33.616016 46.082195 91.779716
32 3 36.124172 45.147057 87.416008
33 2 37.533375 41.585583 83.772858
34 2 37.895882 37.269619 80.966469
35 5 35.857670 34.098553 78.166779
36 3 31.694103 32.639084 75.175484
37 4 27.873007 33.702751 71.625511
38 5 26.593967 36.521339 68.030708
39 5 27.052044 40.344231 64.632629
40 4 30.127117 43.507339 61.473709
41 5 34.216049 43.934994 59.038074
42 3 38.104862 42.576496 56.478176
43 2 39.374634 39.595249 53.122410
44 4 39.071548 35.976688 49.431934
45 2 36.014893 33.162277 45.365837
46 4 34.300243 33.063423 41.045525
47 2 30.604303 35.402287 37.974091
48 5 28.485668 38.925861 35.165020
49 2 29.888346 42.326824 32.188118
50 3 33.594727 45.317497 29.884115
51 8 38.218384 45.348595 26.836222
ITEM: TIMESTEP
3
ITEM: NUMBER OF ATOMS
51
ITEM: BOX BOUNDS pp pp pp
0.000000e+00 7.696200e+01
0.000000e+00 7.329000e+01
0.000000e+00 1.206100e+02
ITEM: ATOMS id type x y z
1 1 38.383453 34.654510 25.344662
2 2 40.270191 35.333061 29.092421
3 3 43.545544 38.565964 33.684254
4 4 42.832855 40.382748 37.439869
5 3 40.345192 44.663357 39.477016
6 5 36.306885 45.702953 41.244942
7 3 32.274044 43.480881 43.225159
8 5 29.223034 39.908920 46.216526
9 3 28.364553 37.322220 50.248669
10 2 30.152102 35.195213 55.273865
11 9 34.951824 28.619659 56.977612
12 10 35.454212 30.240072 65.371582
13 5 36.649330 37.102867 62.474285
14 11 43.929676 35.994179 64.096588
15 12 47.074997 37.966541 70.925240
16 11 43.793465 46.030380 71.110443
17 12 38.576801 52.880116 70.544586
18 5 31.744089 46.726250 72.614899
19 2 27.562773 44.912079 76.317490
20 4 24.670475 42.630539 79.922241
21 3 24.084145 39.367363 83.225372
22 3 26.228376 36.948772 86.840073
23 2 30.746931 35.495640 89.126846
24 4 34.517773 35.757805 91.366325
25 2 38.042343 38.037247 94.501961
26 3 42.376534 39.747322 98.378204
27 6 42.903358 42.189129 102.917664
28 7 32.724461 39.524483 104.527725
29 2 31.410330 43.817894 100.319023
30 3 30.735357 46.601509 96.704475
31 5 32.853325 47.279945 92.561058
32 3 36.402149 45.602276 88.535400
33 2 36.550335 42.163605 84.931877
34 2 35.696869 37.650074 82.224312
35 5 32.901360 34.570438 79.590469
36 3 29.550676 33.255924 76.593338
37 4 26.654352 36.132969 72.801979
38 5 26.045687 37.822735 69.058189
39 5 27.288498 42.942272 64.999290
40 4 30.036396 45.337811 61.686485
41 5 33.457218 46.201305 58.824074
42 3 37.063244 44.058437 56.551369
43 2 39.029881 40.852375 53.868053
44 4 39.784649 36.375587 50.990662
45 2 38.032845 33.702583 47.704647
46 4 35.745529 33.640568 43.157501
47 2 31.923719 35.305813 39.226002
48 5 30.104115 38.635891 36.329071
49 2 31.024963 42.518585 33.040474
50 3 33.632744 45.372128 30.087759
51 8 38.280567 45.295830 26.946592
ITEM: TIMESTEP
4
ITEM: NUMBER OF ATOMS
51
ITEM: BOX BOUNDS pp pp pp
0.000000e+00 7.692100e+01
0.000000e+00 7.321800e+01
0.000000e+00 1.208390e+02
ITEM: ATOMS id type x y z
1 1 38.332058 34.638103 25.438829
2 2 40.216053 35.461201 29.035172
3 3 44.018002 37.884892 33.573929
4 4 44.058594 40.557014 37.060394
5 3 41.621944 44.144173 39.509499
6 5 37.491585 45.269012 41.492531
7 3 32.599060 43.205772 43.111034
8 5 29.853357 39.912022 46.156292
9 3 28.804869 37.131863 50.449440
10 2 30.823393 34.691967 55.101681
11 9 36.498013 29.505842 56.706078
12 10 36.335274 29.748531 65.617210
13 5 34.417812 37.489174 62.012360
14 11 41.552681 36.883976 64.620491
15 12 44.281685 38.996552 71.280617
16 11 42.461807 46.709274 69.729591
17 12 37.918404 53.391453 68.268753
18 5 32.109390 47.271564 71.949142
19 2 28.749454 45.897354 75.565094
20 4 26.082973 43.252110 78.870270
21 3 25.423737 39.075939 82.361542
22 3 27.168606 36.040138 85.765770
23 2 31.924772 34.229599 88.538361
24 4 35.051418 34.237282 91.740715
25 2 38.330463 37.118999 94.864815
26 3 42.658150 39.245922 98.734894
27 6 42.880028 42.131123 102.945053
28 7 32.766972 39.420719 104.510918
29 2 30.994627 42.552731 99.731689
30 3 30.976784 45.639248 95.923119
31 5 33.777798 46.267628 91.774109
32 3 36.577686 44.753708 87.564377
33 2 37.512413 41.089607 84.361115
34 2 36.539097 36.691402 81.542046
35 5 34.044510 34.600544 78.206001
36 3 30.637957 34.503288 74.485786
37 4 27.225006 37.320572 70.630119
38 5 25.356905 40.028946 66.981110
39 5 25.671978 44.117672 63.347595
40 4 28.600069 45.905663 60.417469
41 5 32.765068 46.078167 58.163212
42 3 37.082951 44.285782 56.631653
43 2 38.961796 41.360935 53.829914
44 4 39.733067 37.090572 51.112373
45 2 39.370396 34.652050 47.177814
46 4 37.492802 33.508728 42.852150
47 2 33.435043 34.585442 39.190731
48 5 31.178915 37.776760 36.348122
49 2 30.747000 40.839859 33.192711
50 3 33.677071 45.010544 30.213543
51 8 38.276150 45.249699 27.095524
ITEM: TIMESTEP
5
ITEM: NUMBER OF ATOMS
51
ITEM: BOX BOUNDS pp pp pp
0.000000e+00 7.695700e+01
0.000000e+00 7.341400e+01
0.000000e+00 1.205300e+02
ITEM: ATOMS id type x y z
1 1 38.383995 34.625931 25.244516
2 2 40.598515 35.966057 28.785088
3 3 43.506275 38.725613 32.906609
4 4 43.123863 40.989029 36.391121
5 3 40.957893 44.659313 39.136070
6 5 37.080566 45.506062 41.318386
7 3 32.526970 43.800423 43.322994
8 5 29.024605 40.402966 45.638195
9 3 27.556860 37.518353 49.203270
10 2 28.528316 35.097820 54.279102
11 9 32.894913 28.273664 56.042000
12 10 33.160786 28.483135 64.690140
13 5 33.438656 36.379707 62.782272
14 11 40.966648 36.621304 63.320465
15 12 42.384525 36.008694 70.481834
16 11 42.011417 44.836075 70.570709
17 12 39.327534 51.978977 68.003899
18 5 32.584568 46.538120 71.429321
19 2 29.599567 46.565514 75.347778
20 4 26.084782 45.064285 79.182762
21 3 25.183491 42.208256 82.882164
22 3 26.818003 38.061947 86.023239
23 2 31.625881 35.952892 88.283195
24 4 34.881844 35.287666 91.317482
25 2 38.730515 37.112568 94.458710
26 3 42.932678 38.859993 98.760818
27 6 42.895306 42.273743 102.789345
28 7 32.725060 39.591129 104.443695
29 2 31.132730 42.700439 99.805824
30 3 32.036377 45.900070 96.427307
31 5 35.065189 47.037655 92.689232
32 3 38.009350 45.714756 88.459023
33 2 37.746651 42.426575 84.878212
34 2 36.383152 39.006763 81.191330
35 5 33.688984 35.663544 78.476372
36 3 30.298090 34.743610 75.601212
37 4 26.611229 36.754333 72.056465
38 5 25.243715 39.297951 68.653839
39 5 25.422422 43.846867 65.061333
40 4 27.318249 44.869144 61.247684
41 5 31.492218 45.101730 58.167477
42 3 35.878799 43.289688 56.670616
43 2 37.792736 40.266621 53.872784
44 4 38.456654 36.275246 50.285622
45 2 37.970612 33.843822 46.285290
46 4 36.191696 33.417850 41.888340
47 2 32.571011 35.609577 38.354904
48 5 30.010998 38.810226 35.432823
49 2 30.531063 42.503063 32.662266
50 3 33.471859 45.637882 30.024935
51 8 38.322784 45.411270 26.937603
ITEM: TIMESTEP
6
ITEM: NUMBER OF ATOMS
51
ITEM: BOX BOUNDS pp pp pp
0.000000e+00 7.695400e+01
0.000000e+00 7.341900e+01
0.000000e+00 1.204330e+02
ITEM: ATOMS id type x y z
1 1 38.403561 34.602642 25.277519
2 2 40.625568 35.668335 28.693829
3 3 44.275223 37.696526 32.595097
4 4 43.206154 39.862591 36.488602
5 3 41.270390 43.159721 39.091896
6 5 37.574120 44.362469 41.094845
7 3 33.497356 42.897579 44.010197
8 5 30.351126 40.173687 47.455402
9 3 28.710859 37.849651 51.460304
10 2 30.358398 35.185307 55.576477
11 9 34.704880 28.325443 58.045563
12 10 33.126320 30.413807 66.644547
13 5 33.494965 37.131718 63.744888
14 11 40.603561 35.219925 66.129242
15 12 42.924522 38.971313 72.023705
16 11 41.251923 45.948441 71.968636
17 12 38.846661 53.766731 71.683830
18 5 32.267357 47.822018 73.365532
19 2 28.932953 46.518856 76.642700
20 4 25.697325 43.973972 80.067780
21 3 24.927443 40.269920 83.275085
22 3 26.577295 37.493481 86.590927
23 2 30.951555 35.884529 89.039360
24 4 35.321823 36.251232 91.209602
25 2 38.207600 38.717327 94.286034
26 3 42.515045 39.890903 98.382530
27 6 42.937500 42.248295 102.630760
28 7 32.706692 39.552822 104.404610
29 2 31.031834 43.609146 100.778130
30 3 30.683928 46.961639 97.528114
31 5 32.736534 47.642593 93.142166
32 3 36.064419 46.473068 88.955101
33 2 36.932419 43.049435 85.398735
34 2 36.586681 39.254467 82.215080
35 5 34.087959 35.970512 79.493073
36 3 30.874811 34.886681 76.506744
37 4 28.050632 36.828403 72.711555
38 5 26.812759 40.374653 69.168961
39 5 27.366686 43.809479 66.062714
40 4 29.996626 45.497601 62.394539
41 5 34.294804 45.103661 59.737686
42 3 38.789394 42.660084 57.305641
43 2 40.049553 38.676662 53.803101
44 4 40.061478 34.750912 50.254337
45 2 38.301659 32.550655 46.381943
46 4 35.541233 32.599274 42.222260
47 2 31.620399 34.922638 39.434471
48 5 29.626877 38.209618 36.561626
49 2 31.567638 41.517250 33.783916
50 3 34.081085 45.259132 30.498976
51 8 38.229404 45.350834 26.834122
ITEM: TIMESTEP
7
ITEM: NUMBER OF ATOMS
51
ITEM: BOX BOUNDS pp pp pp
0.000000e+00 7.691199e+01
0.000000e+00 7.332600e+01
0.000000e+00 1.207310e+02
ITEM: ATOMS id type x y z
1 1 38.329868 34.669979 25.422970
2 2 40.729046 35.907200 28.837513
3 3 44.363449 38.339691 33.009041
4 4 43.713806 41.034477 36.561150
5 3 41.380177 44.728710 38.931854
6 5 37.618942 46.015240 40.918972
7 3 33.067345 44.336575 43.410255
8 5 30.457285 41.217243 46.878113
9 3 29.702454 38.617065 51.320740
10 2 31.405252 35.827896 55.568424
11 9 34.975426 29.027058 57.271317
12 10 34.182056 29.778341 66.108307
13 5 34.016880 36.167122 65.283905
14 11 41.041271 35.992916 65.175797
15 12 44.230217 38.288555 71.212654
16 11 40.979607 45.879356 73.917267
17 12 38.523735 53.131809 71.824211
18 5 31.354202 47.417725 73.282318
19 2 28.409821 46.557419 76.770775
20 4 25.790976 44.473492 80.390320
21 3 25.585842 41.759552 84.288513
22 3 27.054537 38.606823 87.627464
23 2 31.813623 36.475052 89.225258
24 4 35.196808 35.767136 91.847832
25 2 38.202923 37.584351 95.678474
26 3 42.454365 39.291447 99.195007
27 6 42.926159 42.210205 102.934952
28 7 32.742924 39.532692 104.466232
29 2 31.099916 43.893970 102.168358
30 3 31.687464 46.890808 99.034050
31 5 34.871140 47.438263 95.254921
32 3 38.012871 46.276123 91.129128
33 2 37.609787 43.520550 86.974792
34 2 36.883160 40.177517 83.347069
35 5 34.578785 36.669407 80.316727
36 3 31.048496 35.081680 77.095444
37 4 26.953465 36.786350 73.743660
38 5 25.424873 39.727051 70.186699
39 5 26.767353 42.730694 66.602013
40 4 29.828962 44.105316 63.435852
41 5 34.681271 43.352627 61.067753
42 3 39.297272 42.988400 57.988007
43 2 40.741718 40.990326 53.814598
44 4 40.895073 37.401562 50.306763
45 2 39.016544 35.361336 46.920086
46 4 36.422607 34.380623 42.899433
47 2 32.596092 36.139923 39.700035
48 5 30.380936 38.685551 36.589230
49 2 31.581335 41.808113 33.254517
50 3 33.876286 45.572018 30.555414
51 8 38.300049 45.366211 27.101847
ITEM: TIMESTEP
8
ITEM: NUMBER OF ATOMS
51
ITEM: BOX BOUNDS pp pp pp
0.000000e+00 7.689500e+01
0.000000e+00 7.350000e+01
0.000000e+00 1.204160e+02
ITEM: ATOMS id type x y z
1 1 38.377213 34.837990 25.252117
2 2 40.581905 35.580654 28.702888
3 3 43.901043 38.447094 33.758354
4 4 42.897549 40.184498 38.063049
5 3 40.516277 43.746174 40.379276
6 5 36.759151 45.010315 41.909889
7 3 32.282196 43.328514 43.853985
8 5 29.736944 40.853043 47.116455
9 3 28.451952 37.436020 50.433712
10 2 29.971628 35.609131 55.201660
11 9 29.770704 27.835386 57.549656
12 10 29.906380 32.364956 65.232643
13 5 34.366467 37.232021 63.814449
14 11 41.389866 36.641338 67.313347
15 12 41.398384 39.899464 75.067383
16 11 41.498108 48.453312 75.005402
17 12 38.052937 55.504898 73.244644
18 5 31.083010 49.891056 75.047081
19 2 28.356390 48.237637 78.639435
20 4 25.978214 45.660431 82.112297
21 3 25.335337 41.393040 85.259308
22 3 27.417107 38.696705 88.444847
23 2 32.657795 36.560661 89.619705
24 4 36.320126 36.326088 91.833321
25 2 40.002293 37.607132 94.762543
26 3 43.144615 38.878613 98.663345
27 6 42.950623 42.348427 102.680542
28 7 32.647583 39.660797 104.281761
29 2 32.512970 42.815880 101.658623
30 3 33.862091 46.404976 99.101585
31 5 35.232250 47.297947 94.670219
32 3 38.720844 46.009876 90.504646
33 2 38.181221 42.953224 86.552071
34 2 36.741989 39.524834 82.896637
35 5 33.959110 37.204365 79.979568
36 3 30.246235 37.129837 76.728371
37 4 26.665146 39.420486 72.871101
38 5 25.583086 42.338406 69.471169
39 5 27.894798 45.325974 66.693840
40 4 31.574310 46.331375 63.906834
41 5 35.528244 44.876415 60.679977
42 3 38.955418 42.569569 57.680260
43 2 39.561256 39.165665 54.328777
44 4 38.839458 35.161549 51.006504
45 2 37.437756 33.237331 47.067177
46 4 35.752232 33.136280 41.985218
47 2 31.966711 35.464355 38.736351
48 5 29.811167 38.258812 36.227772
49 2 31.952925 41.861961 33.610996
50 3 34.091057 45.264740 30.530916
51 8 38.245495 45.404705 26.799637
ITEM: TIMESTEP
9
ITEM: NUMBER OF ATOMS
51
ITEM: BOX BOUNDS pp pp pp
0.000000e+00 7.689400e+01
0.000000e+00 7.359600e+01
0.000000e+00 1.203350e+02
ITEM: ATOMS id type x y z
1 1 38.374222 34.834595 25.217104
2 2 40.729622 35.714752 28.607080
3 3 43.066490 37.900738 33.255131
4 4 42.351009 40.469337 37.324581
5 3 40.602932 44.137657 39.660591
6 5 36.722034 45.533024 41.965923
7 3 32.431229 44.067585 44.091454
8 5 29.078066 41.502472 47.519348
9 3 27.063511 37.614521 50.858997
10 2 28.304979 36.072220 55.087231
11 9 30.198883 28.892113 57.010674
12 10 30.744656 29.789921 65.957733
13 5 34.139145 35.793201 64.899521
14 11 40.232426 38.166771 68.029419
15 12 42.703262 43.527035 74.334488
16 11 40.869923 51.981049 74.826599
17 12 36.237251 57.827324 72.060234
18 5 30.788540 50.496326 73.315125
19 2 27.819632 48.690826 77.537247
20 4 26.346239 46.383022 81.638809
21 3 26.622307 42.165440 84.544952
22 3 28.717976 38.680973 87.490463
23 2 33.576267 36.220879 89.532799
24 4 37.021290 35.441040 91.894608
25 2 41.365017 36.597061 94.926010
26 3 43.702656 38.594406 99.050591
27 6 42.974442 42.422791 102.721153
28 7 32.737694 39.683109 104.295631
29 2 32.962132 42.809959 101.414627
30 3 35.029659 45.704159 98.464874
31 5 37.142567 46.719299 94.422539
32 3 40.309006 45.523865 89.715836
33 2 39.894516 42.272465 85.781151
34 2 37.765881 39.406868 82.372635
35 5 34.262730 37.723930 79.932785
36 3 29.569113 36.934586 78.037804
37 4 26.991568 39.523849 74.343559
38 5 26.683054 41.677856 70.202164
39 5 28.211176 44.202599 66.433472
40 4 31.985424 44.940506 63.062420
41 5 35.815323 43.241329 60.688492
42 3 38.820164 40.481796 57.847198
43 2 38.308556 37.208385 53.784199
44 4 37.488369 34.114365 50.128429
45 2 34.942677 32.682987 46.308098
46 4 33.505692 33.821205 41.904484
47 2 30.454441 36.784046 38.831017
48 5 28.687880 40.044071 36.151791
49 2 30.563776 42.801006 33.211109
50 3 33.921368 45.678650 30.150831
51 8 38.258286 45.488140 26.720783
ITEM: TIMESTEP
10
ITEM: NUMBER OF ATOMS
51
ITEM: BOX BOUNDS pp pp pp
0.000000e+00 7.701900e+01
0.000000e+00 7.361900e+01
0.000000e+00 1.199070e+02
ITEM: ATOMS id type x y z
1 1 38.395775 34.833591 24.956980
2 2 40.505604 35.880005 28.426876
3 3 42.453148 38.790924 32.799629
4 4 41.632092 40.455315 36.543282
5 3 39.483356 43.719696 39.579567
6 5 35.561047 44.555557 41.488487
7 3 30.264605 43.241318 42.758209
8 5 27.036392 40.545074 45.315750
9 3 25.251247 37.117664 48.741955
10 2 27.387377 35.438541 53.396854
11 9 28.629566 27.789650 54.668583
12 10 30.302135 31.048317 62.703716
13 5 33.348705 36.233913 61.742519
14 11 39.598228 37.872829 64.815811
15 12 44.761261 41.178051 70.686699
16 11 42.002537 49.340660 73.523590
17 12 37.878902 56.564590 73.556969
18 5 32.646053 48.886227 73.668907
19 2 29.611036 47.801811 77.270775
20 4 27.123650 45.592663 81.524101
21 3 26.497265 42.160290 85.069824
22 3 28.899902 38.786575 87.958954
23 2 33.778141 36.316872 89.877327
24 4 36.732700 34.853855 92.399406
25 2 40.826763 36.258942 95.419693
26 3 43.511475 38.856426 98.505753
27 6 43.055080 42.361347 102.476517
28 7 32.706768 39.731289 104.141045
29 2 32.121319 42.710342 100.930565
30 3 34.737854 45.625183 98.077332
31 5 37.882362 46.740669 94.846649
32 3 40.494892 45.887218 90.656731
33 2 40.126225 42.320580 86.858513
34 2 37.833130 39.656887 83.330475
35 5 35.263783 37.410931 79.206276
36 3 31.503752 36.233238 76.248238
37 4 27.823973 38.484524 73.814255
38 5 27.196020 41.090176 70.273071
39 5 28.602999 44.337261 66.796318
40 4 30.882442 45.226837 62.718163
41 5 34.980072 44.130203 59.407368
42 3 37.372910 41.379799 56.130783
43 2 36.265305 36.619183 52.740326
44 4 35.462906 32.985085 49.065109
45 2 33.787434 32.192123 44.750835
46 4 32.732372 33.039051 40.108154
47 2 29.375605 36.255676 37.124897
48 5 27.918692 39.778374 34.596775
49 2 30.092539 42.669464 31.844261
50 3 33.478775 45.502831 29.320345
51 8 38.336411 45.479378 26.544559
ITEM: TIMESTEP
11
ITEM: NUMBER OF ATOMS
51
ITEM: BOX BOUNDS pp pp pp
0.000000e+00 7.708900e+01
0.000000e+00 7.364100e+01
0.000000e+00 1.199310e+02
ITEM: ATOMS id type x y z
1 1 38.522682 34.848236 24.896492
2 2 40.492138 35.745457 28.452232
3 3 42.297298 38.831226 32.781448
4 4 40.128105 40.742844 36.459843
5 3 37.119919 44.988358 38.774334
6 5 32.630352 45.129536 40.610718
7 3 28.189407 44.772068 42.733162
8 5 24.415123 42.559433 46.536030
9 3 23.759937 38.419224 49.617279
10 2 25.178308 36.808292 53.568863
11 9 26.385117 28.751730 56.769581
12 10 30.055475 29.872829 65.084564
13 5 32.814957 35.274502 60.792553
14 11 39.642937 35.746441 62.567657
15 12 43.430531 38.279121 69.799614
16 11 40.676453 45.522793 74.707367
17 12 37.094574 52.958881 75.656029
18 5 31.068920 47.011707 72.944931
19 2 28.414745 46.027729 77.055054
20 4 26.447893 44.187359 81.226608
21 3 26.681080 40.580360 84.204391
22 3 29.776079 37.029030 86.685555
23 2 35.317917 35.018242 88.434212
24 4 38.320656 34.251945 91.627068
25 2 41.555008 35.660168 95.154495
26 3 43.641346 38.419464 98.891106
27 6 43.025410 42.456341 102.398590
28 7 32.776180 39.745567 104.076729
29 2 32.914253 42.560123 101.046494
30 3 35.442394 45.440273 98.054161
31 5 38.973125 45.928631 94.623299
32 3 41.896797 44.511230 90.453300
33 2 40.823463 40.954880 86.092316
34 2 38.494106 38.657246 82.581032
35 5 35.246933 36.840393 78.998428
36 3 31.713997 35.398720 75.666542
37 4 27.678602 36.407879 72.628166
38 5 26.555212 38.320141 68.599396
39 5 26.555449 43.097382 66.176392
40 4 28.255999 43.966972 61.748741
41 5 32.240932 43.348976 58.650852
42 3 35.162903 41.811199 55.234287
43 2 35.439228 37.594433 51.811844
44 4 33.899570 34.679798 48.614002
45 2 31.562145 33.898388 44.731449
46 4 29.790209 33.966343 39.946228
47 2 26.495796 36.383835 36.603298
48 5 26.078781 39.258572 33.600033
49 2 29.237740 42.165611 31.401108
50 3 33.776711 45.404411 29.769859
51 8 38.418053 45.501244 26.566528
ITEM: TIMESTEP
12
ITEM: NUMBER OF ATOMS
51
ITEM: BOX BOUNDS pp pp pp
0.000000e+00 7.711800e+01
0.000000e+00 7.360900e+01
0.000000e+00 1.200380e+02
ITEM: ATOMS id type x y z
1 1 38.527992 34.795834 24.986181
2 2 40.665195 35.686104 28.532209
3 3 42.603687 37.038300 33.499645
4 4 40.893288 38.527248 37.403439
5 3 38.427341 42.256618 39.503597
6 5 34.392471 43.921223 40.367588
7 3 29.605740 43.734138 42.343342
8 5 26.442406 42.053001 45.335552
9 3 24.324759 39.096710 49.164154
10 2 24.237499 37.839138 53.803741
11 9 22.136246 31.137638 58.692753
12 10 27.911236 31.568571 66.997963
13 5 30.921406 37.065521 62.420864
14 11 38.654400 36.730133 65.069885
15 12 43.344227 41.797539 69.511993
16 11 41.705708 45.280010 73.078766
17 12 39.645317 49.418186 79.893082
18 5 32.555420 48.534550 75.095657
19 2 28.771067 46.798676 78.732292
20 4 26.139990 43.911285 82.058426
21 3 26.265785 39.746422 84.738365
22 3 29.190365 35.787136 86.919960
23 2 33.428535 33.917984 89.685150
24 4 37.042679 33.370785 92.710754
25 2 41.289940 35.172466 95.374054
26 3 43.674561 38.671051 98.803665
27 6 43.021168 42.431271 102.539742
28 7 32.828697 39.648167 104.134125
29 2 32.906147 42.618416 101.323151
30 3 35.388798 45.003426 98.156242
31 5 38.194477 45.043510 94.277359
32 3 39.830433 43.304783 89.666092
33 2 40.104671 40.347202 85.279762
34 2 37.713650 38.124241 82.098030
35 5 34.659771 36.265438 79.068977
36 3 30.613667 35.432838 76.023560
37 4 27.211687 38.601913 73.529297
38 5 25.557407 42.276707 71.061859
39 5 26.869192 45.539570 67.727112
40 4 29.079065 45.984661 63.380901
41 5 32.493458 45.122517 59.492702
42 3 34.617039 42.836670 56.236713
43 2 34.801582 37.874420 53.722858
44 4 34.553051 35.128147 49.791271
45 2 31.793236 33.033543 45.163898
46 4 30.186384 32.800804 40.807747
47 2 27.401640 35.935863 37.454929
48 5 27.319035 39.522560 34.644939
49 2 30.114227 42.312939 32.133812
50 3 33.868912 45.372952 29.456194
51 8 38.416283 45.456936 26.584869
ITEM: TIMESTEP
13
ITEM: NUMBER OF ATOMS
51
ITEM: BOX BOUNDS pp pp pp
0.000000e+00 7.709100e+01
0.000000e+00 7.360100e+01
0.000000e+00 1.199820e+02
ITEM: ATOMS id type x y z
1 1 38.430367 34.805489 24.994118
2 2 40.320782 35.526489 28.575293
3 3 39.949406 35.806934 33.612446
4 4 39.865788 39.321854 37.401981
5 3 38.324547 43.818825 39.358372
6 5 34.744728 45.634762 41.919785
7 3 29.280941 45.256527 42.974602
8 5 25.873369 43.296322 45.313705
9 3 23.516548 40.090469 48.701725
10 2 24.146688 38.119202 53.734768
11 9 24.304243 29.861069 58.097244
12 10 29.553396 32.827858 66.282707
13 5 31.853792 38.190926 63.946095
14 11 38.958260 38.806835 65.990921
15 12 45.153252 42.901772 69.317070
16 11 43.855484 46.833202 73.355179
17 12 42.391724 50.761173 80.565086
18 5 34.709743 48.993084 76.027084
19 2 31.399315 47.336376 78.903984
20 4 28.712660 44.335594 81.519928
21 3 29.041601 40.143021 83.693932
22 3 30.887798 36.764992 86.823746
23 2 34.637825 34.204628 89.634041
24 4 38.306252 33.008259 92.121529
25 2 41.864254 35.321220 95.201393
26 3 43.731224 38.407097 98.828354
27 6 43.065254 42.368286 102.525856
28 7 32.788177 39.734245 104.178001
29 2 33.035019 42.645267 101.416817
30 3 35.072189 44.904758 98.104538
31 5 38.023735 44.607613 94.213051
32 3 41.392788 43.218529 89.991348
33 2 41.585491 41.371811 85.670822
34 2 40.510166 38.579617 81.788689
35 5 37.300823 36.588371 78.456879
36 3 33.803314 36.492416 75.454262
37 4 29.064913 39.018299 73.309311
38 5 27.079651 42.447338 70.695236
39 5 27.150511 46.332855 68.259659
40 4 29.123474 47.435539 64.315872
41 5 32.377605 46.066666 60.865971
42 3 34.173866 43.792889 57.181522
43 2 33.446358 39.060379 53.903194
44 4 33.018559 35.874973 50.341457
45 2 31.330492 34.267525 45.662048
46 4 30.094910 34.955841 40.971668
47 2 27.408197 38.216084 37.331089
48 5 26.578867 42.084339 34.970573
49 2 30.182898 44.932842 32.731796
50 3 33.981373 46.144020 29.996723
51 8 38.355446 45.451626 26.654108
ITEM: TIMESTEP
14
ITEM: NUMBER OF ATOMS
51
ITEM: BOX BOUNDS pp pp pp
0.000000e+00 7.698400e+01
0.000000e+00 7.364500e+01
0.000000e+00 1.201560e+02
ITEM: ATOMS id type x y z
1 1 38.378937 34.829433 25.020098
2 2 40.162750 35.839100 28.520639
3 3 41.359276 38.384640 32.862091
4 4 40.953133 41.453983 37.348717
5 3 39.056931 45.208321 39.955116
6 5 35.211067 46.127499 41.936314
7 3 30.253426 44.826023 42.858246
8 5 26.930820 41.980854 44.791573
9 3 25.633833 39.084202 48.668739
10 2 26.178616 38.374653 53.664124
11 9 27.503847 31.182232 57.937035
12 10 32.944374 31.613216 66.567001
13 5 33.901173 38.413818 63.382183
14 11 40.480858 39.245499 65.655396
15 12 45.441315 43.695045 70.589050
16 11 44.123466 46.384727 75.139938
17 12 41.253723 50.410156 80.983826
18 5 34.007641 48.900341 76.760727
19 2 31.611948 46.680908 80.062714
20 4 29.653357 43.434299 82.896767
21 3 29.932289 39.634075 85.404228
22 3 32.680347 35.653500 87.825066
23 2 37.069473 32.806213 90.002632
24 4 39.989117 32.009594 93.265358
25 2 43.076534 34.526100 96.318680
26 3 43.869278 38.074314 99.608032
27 6 43.028805 42.361259 102.648048
28 7 32.774292 39.707600 104.175262
29 2 32.787029 42.081608 101.079163
30 3 35.992775 43.932404 97.304504
31 5 38.816319 43.714649 93.501137
32 3 43.093788 42.165699 90.115997
33 2 43.896374 39.077770 86.510857
34 2 41.393089 37.470284 82.615868
35 5 38.194458 35.886513 79.234825
36 3 34.147419 36.130829 76.009277
37 4 29.810616 38.606842 73.457756
38 5 27.760469 42.128334 71.119637
39 5 27.841864 45.771305 67.991310
40 4 30.126333 47.374767 64.471992
41 5 33.592869 46.232956 60.833458
42 3 35.881840 44.191628 57.120434
43 2 36.414474 38.883987 53.969875
44 4 35.619751 35.552208 50.360928
45 2 33.737946 33.679611 46.224346
46 4 33.228745 34.373093 41.501175
47 2 29.845154 36.940079 37.584877
48 5 28.377735 40.111851 34.682262
49 2 30.667765 43.647419 32.074795
50 3 33.454311 45.843678 29.585554
51 8 38.293694 45.523430 26.705673
ITEM: TIMESTEP
15
ITEM: NUMBER OF ATOMS
51
ITEM: BOX BOUNDS pp pp pp
0.000000e+00 7.696100e+01
0.000000e+00 7.363600e+01
0.000000e+00 1.200850e+02
ITEM: ATOMS id type x y z
1 1 38.399147 34.840744 25.084442
2 2 40.417580 36.427773 28.513229
3 3 41.391762 39.126949 32.245258
4 4 41.112984 43.298813 36.299141
5 3 39.057045 46.768818 39.250217
6 5 35.057785 47.866276 41.472858
7 3 30.670877 46.776421 43.860439
8 5 27.194242 44.247078 46.228920
9 3 25.276142 40.567070 49.202129
10 2 27.642916 37.313755 53.357624
11 9 32.133171 29.036175 55.405689
12 10 34.474091 30.997076 65.053864
13 5 34.636211 37.745396 63.552536
14 11 41.676079 37.738750 65.114944