ITEM: TIMESTEP
0
ITEM: NUMBER OF ATOMS
10
ITEM: BOX BOUNDS pp pp pp
0.000000e+00 7.073900e+01
0.000000e+00 7.358600e+01
0.000000e+00 1.143110e+02
ITEM: ATOMS id type x y z
1 1 29.102766 30.804726 55.346973
2 5 34.214985 24.650587 55.594410
3 6 38.017315 28.470846 62.472683
4 7 41.489296 26.290733 58.993355
5 8 43.343323 29.532619 65.721680
6 2 37.900795 36.130768 65.228363
7 3 26.668041 37.975548 65.428116
8 2 28.819860 40.376053 61.971996
9 2 33.117512 41.053734 59.184063
10 4 36.779339 39.525234 56.499935
ITEM: TIMESTEP
1
ITEM: NUMBER OF ATOMS
10
ITEM: BOX BOUNDS pp pp pp
0.000000e+00 7.062900e+01
0.000000e+00 7.349000e+01
0.000000e+00 1.144900e+02
ITEM: ATOMS id type x y z
1 1 29.213638 31.407869 56.153427
2 5 35.881172 26.220781 56.420326
3 6 38.829166 29.306429 64.244781
4 7 41.168312 30.019201 59.136452
5 8 43.734138 31.991962 66.005272
6 2 37.894142 37.843834 65.913010
7 3 26.038641 38.486393 67.361794
8 2 28.219156 40.507061 63.930943
9 2 32.284920 41.567299 60.393909
10 4 35.537392 40.986946 57.440578
ITEM: TIMESTEP
2
ITEM: NUMBER OF ATOMS
10
ITEM: BOX BOUNDS pp pp pp
0.000000e+00 7.063900e+01
0.000000e+00 7.345399e+01
0.000000e+00 1.146020e+02
ITEM: ATOMS id type x y z
1 1 28.791597 31.643744 56.289028
2 5 34.702999 26.823708 56.115788
3 6 39.769348 29.966995 63.412773
4 7 41.922844 28.884144 58.832767
5 8 45.782303 32.374077 64.290474
6 2 39.323116 38.213024 65.778038
7 3 27.253128 38.178970 67.538704
8 2 29.367275 40.214325 63.716507
9 2 33.745605 41.303585 60.647427
10 4 36.476467 40.418808 57.175701
ITEM: TIMESTEP
3
ITEM: NUMBER OF ATOMS
10
ITEM: BOX BOUNDS pp pp pp
0.000000e+00 7.066400e+01
0.000000e+00 7.341600e+01
0.000000e+00 1.146340e+02
ITEM: ATOMS id type x y z
1 1 28.901560 31.361767 55.628262
2 5 34.912544 26.910107 57.794624
3 6 40.148582 30.756945 65.460114
4 7 42.037643 31.065294 60.298965
5 8 45.592045 33.167587 66.651558
6 2 39.463493 39.062023 67.271210
7 3 27.745745 38.483345 66.813850
8 2 29.308384 41.544765 63.648521
9 2 31.865477 42.346058 59.983246
10 4 36.414604 39.593136 57.765705
ITEM: TIMESTEP
4
ITEM: NUMBER OF ATOMS
10
ITEM: BOX BOUNDS pp pp pp
0.000000e+00 7.065900e+01
0.000000e+00 7.332600e+01
0.000000e+00 1.147320e+02
ITEM: ATOMS id type x y z
1 1 29.380880 32.424839 55.610722
2 5 35.431812 28.512630 58.032505
3 6 38.469482 31.992695 66.744125
4 7 41.137497 32.510689 61.669994
5 8 44.501648 35.494186 67.741806
6 2 38.956619 41.634411 67.830635
7 3 27.057505 39.848545 67.013344
8 2 28.736303 42.448593 63.769299
9 2 32.560665 43.255432 60.707874
10 4 36.359955 41.602249 58.037739
ITEM: TIMESTEP
5
ITEM: NUMBER OF ATOMS
10
ITEM: BOX BOUNDS pp pp pp
0.000000e+00 7.085200e+01
0.000000e+00 7.318600e+01
0.000000e+00 1.146610e+02
ITEM: ATOMS id type x y z
1 1 28.244957 31.877134 54.935272
2 5 35.551929 27.309229 56.663040
3 6 39.783504 30.011444 65.387650
4 7 39.911682 31.523106 59.581062
5 8 44.638073 32.852898 65.235298
6 2 38.867336 38.602577 67.120499
7 3 27.064676 38.184639 67.527214
8 2 28.773645 40.840317 63.887939
9 2 32.905010 41.691193 60.696575
10 4 35.507862 40.776943 57.234444
ITEM: TIMESTEP
6
ITEM: NUMBER OF ATOMS
10
ITEM: BOX BOUNDS pp pp pp
0.000000e+00 7.095399e+01
0.000000e+00 7.328600e+01
0.000000e+00 1.143000e+02
ITEM: ATOMS id type x y z
1 1 29.020350 30.458046 55.712418
2 5 36.143650 25.951513 57.707905
3 6 42.793411 31.523596 63.174759
4 7 41.339733 30.972269 57.680031
5 8 47.423790 34.704170 60.827602
6 2 41.113899 38.968113 65.228729
7 3 29.379993 37.457264 66.484406
8 2 32.132915 40.665882 63.635223
9 2 34.531616 41.335583 60.106579
10 4 37.042046 39.348694 56.294292
ITEM: TIMESTEP
7
ITEM: NUMBER OF ATOMS
10
ITEM: BOX BOUNDS pp pp pp
0.000000e+00 7.105300e+01
0.000000e+00 7.345100e+01
0.000000e+00 1.139040e+02
ITEM: ATOMS id type x y z
1 1 29.656330 29.951563 54.339901
2 5 35.388630 23.722828 55.702888
3 6 42.552998 27.530315 62.117760
4 7 41.500938 29.249907 57.272537
5 8 46.445408 31.960247 62.291069
6 2 40.322674 36.385731 65.577393
7 3 28.691145 36.326679 66.217896
8 2 30.474768 38.800335 62.804459
9 2 33.957111 39.874935 59.177788
10 4 36.959267 38.837662 55.558807
ITEM: TIMESTEP
8
ITEM: NUMBER OF ATOMS
10
ITEM: BOX BOUNDS pp pp pp
0.000000e+00 7.079800e+01
0.000000e+00 7.371200e+01
0.000000e+00 1.138970e+02
ITEM: ATOMS id type x y z
1 1 27.686323 31.203537 54.217457
2 5 34.373577 27.048216 55.588543
3 6 41.739986 29.483423 62.403111
4 7 39.584713 31.957491 57.479443
5 8 45.601395 34.107174 61.814583
6 2 39.941086 37.277683 66.129608
7 3 28.253918 38.203171 65.769295
8 2 30.408838 40.780102 62.312233
9 2 33.895992 41.323368 58.901245
10 4 35.774639 39.979141 54.974297
ITEM: TIMESTEP
9
ITEM: NUMBER OF ATOMS
10
ITEM: BOX BOUNDS pp pp pp
0.000000e+00 7.087900e+01
0.000000e+00 7.362100e+01
0.000000e+00 1.139060e+02
ITEM: ATOMS id type x y z
1 1 28.118740 30.850216 55.977180
2 5 33.517864 25.313940 56.919800
3 6 40.692875 28.145853 63.207195
4 7 38.738880 30.027855 58.276505
5 8 44.881813 32.288006 62.412365
6 2 40.188545 36.964222 66.004761
7 3 28.648132 39.856773 66.445976
8 2 30.400608 41.216812 62.478104
9 2 34.493771 40.564434 59.073978
10 4 37.041477 38.828121 55.826900
ITEM: TIMESTEP
10
ITEM: NUMBER OF ATOMS
10
ITEM: BOX BOUNDS pp pp pp
0.000000e+00 7.095200e+01
0.000000e+00 7.367600e+01
0.000000e+00 1.138110e+02
ITEM: ATOMS id type x y z
1 1 29.426064 32.277706 55.298584
2 5 34.274467 26.735508 56.855808
3 6 42.796230 28.461353 62.135830
4 7 39.349163 31.116632 58.222137
5 8 46.230648 32.418736 60.281166
6 2 42.248817 36.789944 66.048195
7 3 31.230263 40.540577 67.144890
8 2 33.741924 42.820641 64.020798
9 2 36.204174 42.224396 60.183868
10 4 38.123219 39.795486 56.131992
ITEM: TIMESTEP
11
ITEM: NUMBER OF ATOMS
10
ITEM: BOX BOUNDS pp pp pp
0.000000e+00 7.105200e+01
0.000000e+00 7.354800e+01
0.000000e+00 1.137580e+02
ITEM: ATOMS id type x y z
1 1 29.652269 30.853291 55.934845
2 5 36.124725 25.242926 57.450665
3 6 40.360054 30.437284 64.164246
4 7 39.378902 30.757851 57.772133
5 8 45.946358 32.603912 61.765491
6 2 41.428230 38.066097 66.755592
7 3 30.047483 40.677818 66.840393
8 2 32.670048 42.768646 63.299164
9 2 35.680481 42.072128 59.712734
10 4 38.163815 38.823273 56.268787
ITEM: TIMESTEP
12
ITEM: NUMBER OF ATOMS
10
ITEM: BOX BOUNDS pp pp pp
0.000000e+00 7.119300e+01
0.000000e+00 7.355400e+01
0.000000e+00 1.135030e+02
ITEM: ATOMS id type x y z
1 1 28.059601 31.125462 54.791477
2 5 34.125576 26.203203 56.787720
3 6 39.783569 30.050083 64.280029
4 7 38.096069 30.748552 58.268379
5 8 44.420639 32.180820 62.282433
6 2 38.893642 38.181767 65.814713
7 3 27.648275 40.995186 67.092995
8 2 29.509546 41.788620 62.766418
9 2 33.423237 41.606846 59.554955
10 4 36.933167 38.649704 56.810047
ITEM: TIMESTEP
13
ITEM: NUMBER OF ATOMS
10
ITEM: BOX BOUNDS pp pp pp
0.000000e+00 7.107000e+01
0.000000e+00 7.365700e+01
0.000000e+00 1.135040e+02
ITEM: ATOMS id type x y z
1 1 29.316500 32.778622 56.081150
2 5 34.073360 27.143932 57.254818
3 6 39.882450 30.005180 64.672913
4 7 39.741711 30.974707 58.348759
5 8 45.200047 31.373663 63.617130
6 2 40.757160 37.363991 67.641319
7 3 29.646925 39.388805 66.274033
8 2 32.607487 42.064919 62.971100
9 2 36.663029 41.346813 60.433990
10 4 38.961941 38.984032 57.476234
ITEM: TIMESTEP
14
ITEM: NUMBER OF ATOMS
10
ITEM: BOX BOUNDS pp pp pp
0.000000e+00 7.111800e+01
0.000000e+00 7.361400e+01
0.000000e+00 1.135420e+02
ITEM: ATOMS id type x y z
1 1 28.956022 32.637409 55.950844
2 5 34.004604 26.521650 56.757252
3 6 37.857571 30.977581 64.678925
4 7 38.338448 31.013092 58.296795
5 8 44.021507 32.201237 63.393044
6 2 40.140835 38.423908 66.915443
7 3 28.491478 39.932686 66.887657
8 2 31.430357 41.301121 62.752205
9 2 35.143040 41.542068 59.567085
10 4 38.078178 39.983227 56.633320
ITEM: TIMESTEP
15
ITEM: NUMBER OF ATOMS
10
ITEM: BOX BOUNDS pp pp pp
0.000000e+00 7.116600e+01
0.000000e+00 7.354900e+01
0.000000e+00 1.135720e+02
ITEM: ATOMS id type x y z
1 1 27.691677 33.504456 56.541763
2 5 32.321838 27.914972 58.070938
3 6 37.659985 31.925791 64.495506
4 7 37.818577 32.005352 58.247723
5 8 44.411102 33.703987 62.736301
6 2 40.677689 39.493866 66.624786
7 3 28.750347 40.922382 65.275436
8 2 31.804001 42.634418 61.889034
9 2 35.293076 42.063221 59.052483
10 4 37.877754 38.791882 56.465000
ITEM: TIMESTEP
16
ITEM: NUMBER OF ATOMS
10
ITEM: BOX BOUNDS pp pp pp
0.000000e+00 7.113000e+01
0.000000e+00 7.363800e+01
0.000000e+00 1.135130e+02
ITEM: ATOMS id type x y z
1 1 28.349411 32.285149 56.022110
2 5 33.442726 26.208620 56.141457
3 6 38.788277 30.082050 62.869678
4 7 39.129898 30.868191 56.813580
5 8 45.102867 32.037762 61.948708
6 2 41.192482 37.563072 66.236969
7 3 29.897869 41.426109 66.041191
8 2 32.477245 42.183994 62.347244
9 2 36.572613 40.697304 59.451080
10 4 38.749691 38.346809 56.369247
ITEM: TIMESTEP
17
ITEM: NUMBER OF ATOMS
10
ITEM: BOX BOUNDS pp pp pp
0.000000e+00 7.104900e+01
0.000000e+00 7.382300e+01
0.000000e+00 1.133940e+02
ITEM: ATOMS id type x y z
1 1 27.760891 34.430962 56.304863
2 5 32.758366 28.023066 56.499676
3 6 40.126774 30.468351 62.600498
4 7 38.612610 32.150944 56.931576
5 8 45.248703 32.771275 60.728104
6 2 40.398472 37.971321 66.162132
7 3 29.243172 40.244747 67.232849
8 2 31.823841 42.040592 63.514908
9 2 35.237034 41.861382 60.051704
10 4 37.735664 40.097614 56.775181
ITEM: TIMESTEP
18
ITEM: NUMBER OF ATOMS
10
ITEM: BOX BOUNDS pp pp pp
0.000000e+00 7.095100e+01
0.000000e+00 7.368000e+01
0.000000e+00 1.137150e+02
ITEM: ATOMS id type x y z
1 1 28.548407 33.214672 56.346874
2 5 34.211914 27.264656 56.376877
3 6 41.659058 30.685429 62.535118
4 7 40.231472 32.220970 57.230911
5 8 45.973862 34.243408 61.443512
6 2 40.708126 39.219326 66.319122
7 3 29.343197 40.064556 66.337341
8 2 32.622807 42.073990 63.323456
9 2 36.122906 41.894814 59.930786
10 4 38.166241 39.814297 56.378170
ITEM: TIMESTEP
19
ITEM: NUMBER OF ATOMS
10
ITEM: BOX BOUNDS pp pp pp
0.000000e+00 7.097800e+01
0.000000e+00 7.366500e+01
0.000000e+00 1.137880e+02
ITEM: ATOMS id type x y z
1 1 29.565809 32.265270 56.851929
2 5 35.660973 27.674395 57.669243
3 6 40.855190 33.108727 64.381950
4 7 40.222004 33.434544 58.303467
5 8 45.078445 36.543758 62.665535
6 2 39.411766 41.981335 65.815201
7 3 27.627092 41.086800 66.025658
8 2 31.287542 42.544643 62.690845
9 2 34.446030 43.044724 59.419132
10 4 37.388031 40.817577 56.655415
ITEM: TIMESTEP
20
ITEM: NUMBER OF ATOMS
10
ITEM: BOX BOUNDS pp pp pp
0.000000e+00 7.093300e+01
0.000000e+00 7.358700e+01
0.000000e+00 1.140080e+02
ITEM: ATOMS id type x y z
1 1 28.693762 32.124428 56.355179
2 5 35.717205 27.787762 58.475960
3 6 39.975399 33.877457 65.373108
4 7 38.999168 33.430008 58.730686
5 8 43.918098 37.123253 62.731583
6 2 38.693493 41.749191 67.297829
7 3 27.294596 40.989693 66.761047
8 2 29.950600 42.976196 62.975864
9 2 33.464561 43.255203 59.923225
10 4 36.186058 41.027565 56.999912
ITEM: TIMESTEP
21
ITEM: NUMBER OF ATOMS
10
ITEM: BOX BOUNDS pp pp pp
0.000000e+00 7.087000e+01
0.000000e+00 7.361500e+01
0.000000e+00 1.140040e+02
ITEM: ATOMS id type x y z
1 1 29.556225 34.433384 56.022099
2 5 35.852989 29.097984 57.309418
3 6 41.226875 33.416950 64.190170
4 7 39.437428 34.429699 58.609310
5 8 44.872189 37.362503 62.760662
6 2 39.783726 41.912060 67.231613
7 3 28.138845 42.269825 67.221924
8 2 31.557631 43.792336 63.731804
9 2 34.898102 44.176971 60.457268
10 4 37.843319 42.183456 57.075642
ITEM: TIMESTEP
22
ITEM: NUMBER OF ATOMS
10
ITEM: BOX BOUNDS pp pp pp
0.000000e+00 7.088600e+01
0.000000e+00 7.367700e+01
0.000000e+00 1.138960e+02
ITEM: ATOMS id type x y z
1 1 29.208776 33.324287 56.948242
2 5 34.145481 27.964922 58.245499
3 6 40.639130 31.773180 64.608444
4 7 39.742241 32.977974 58.882355
5 8 45.319351 34.999111 63.465179
6 2 39.494923 39.816349 67.327789
7 3 27.785122 40.706375 66.375854
8 2 31.555422 41.739780 63.128902
9 2 35.660603 42.056450 60.235039
10 4 38.598667 40.105637 57.200535
ITEM: TIMESTEP
23
ITEM: NUMBER OF ATOMS
10
ITEM: BOX BOUNDS pp pp pp
0.000000e+00 7.080600e+01
0.000000e+00 7.381100e+01
0.000000e+00 1.138560e+02
ITEM: ATOMS id type x y z
1 1 29.472317 31.007280 55.664509
2 5 35.196991 25.893162 57.279251
3 6 40.415630 30.108234 64.585320
4 7 39.457653 30.888527 58.431725
5 8 45.043072 32.725563 63.222813
6 2 40.625019 38.399494 66.316757
7 3 29.205204 39.514572 66.268059
8 2 31.433109 41.338486 62.150223
9 2 35.586258 40.697849 59.305473
10 4 38.623596 38.791882 56.700043
ITEM: TIMESTEP
24
ITEM: NUMBER OF ATOMS
10
ITEM: BOX BOUNDS pp pp pp
0.000000e+00 7.090000e+01
0.000000e+00 7.382700e+01
0.000000e+00 1.134880e+02
ITEM: ATOMS id type x y z
1 1 27.736088 32.191780 55.262646
2 5 32.170971 25.864603 57.959579
3 6 39.041561 30.481083 63.961788
4 7 37.182098 30.694197 58.023533
5 8 43.804253 31.730015 61.164753
6 2 40.106285 38.431416 65.729088
7 3 28.595257 41.713718 66.659813
8 2 31.956032 42.738693 62.972340
9 2 35.211628 41.785564 59.514614
10 4 37.331776 39.113159 56.548553
ITEM: TIMESTEP
25
ITEM: NUMBER OF ATOMS
10
ITEM: BOX BOUNDS pp pp pp
0.000000e+00 7.081000e+01
0.000000e+00 7.375800e+01
0.000000e+00 1.139140e+02
ITEM: ATOMS id type x y z
1 1 27.360767 31.521236 56.021523
2 5 31.445080 26.386242 56.823486
3 6 39.890736 28.267954 62.360298
4 7 38.178802 30.774891 57.460445
5 8 44.060024 32.433357 61.278862
6 2 40.241386 37.822262 66.440742
7 3 28.374363 38.830849 67.508904
8 2 30.729834 40.190044 63.278160
9 2 34.311958 40.410423 60.230995
10 4 36.958359 38.324409 57.158028
ITEM: TIMESTEP
26
ITEM: NUMBER OF ATOMS
10
ITEM: BOX BOUNDS pp pp pp
0.000000e+00 7.059800e+01
0.000000e+00 7.383100e+01
0.000000e+00 1.142730e+02
ITEM: ATOMS id type x y z
1 1 27.321383 32.188221 56.720345
2 5 30.157694 26.178690 57.348766
3 6 38.402107 28.392731 61.946617
4 7 37.177265 29.497379 56.199738
5 8 43.429134 30.448242 60.198719
6 2 41.468090 36.142612 65.483894
7 3 30.324291 38.504032 66.707031
8 2 32.696728 40.144367 62.228516
9 2 35.752880 40.104290 59.027485
10 4 37.805767 37.653145 55.785793
ITEM: TIMESTEP
27
ITEM: NUMBER OF ATOMS
10
ITEM: BOX BOUNDS pp pp pp
0.000000e+00 7.047700e+01
0.000000e+00 7.382300e+01
0.000000e+00 1.142290e+02
ITEM: ATOMS id type x y z
1 1 26.127260 33.073231 56.381035
2 5 29.049622 27.587179 57.409931
3 6 37.364044 29.106312 62.586121
4 7 36.776684 30.589056 56.957798
5 8 42.307785 31.132154 61.537014
6 2 39.358952 37.460720 65.656464
7 3 28.085398 39.418972 66.411003
8 2 30.970791 41.178482 62.907089
9 2 34.523800 40.860046 60.129978
10 4 36.815674 38.235188 56.933167
ITEM: TIMESTEP
28
ITEM: NUMBER OF ATOMS
10
ITEM: BOX BOUNDS pp pp pp
0.000000e+00 7.058300e+01
0.000000e+00 7.385600e+01
0.000000e+00 1.140830e+02
ITEM: ATOMS id type x y z
1 1 26.280863 31.925613 55.476467
2 5 29.579266 25.936726 57.501484
3 6 37.875164 28.723392 62.813545
4 7 37.105556 29.650431 57.043919
5 8 43.014797 31.453737 61.072865
6 2 38.398918 36.015854 67.045250
7 3 27.646769 39.642593 66.296730
8 2 30.549843 40.979252 62.836647
9 2 34.281849 39.792381 60.064194
10 4 36.744633 37.421757 56.730442
ITEM: TIMESTEP
29
ITEM: NUMBER OF ATOMS
10
ITEM: BOX BOUNDS pp pp pp
0.000000e+00 7.070000e+01
0.000000e+00 7.397400e+01
0.000000e+00 1.137570e+02
ITEM: ATOMS id type x y z
1 1 24.864500 32.433945 55.664280
2 5 28.689285 26.590971 56.210476
3 6 37.319355 27.856565 61.247078
4 7 36.595772 30.112751 55.850006
5 8 42.919182 30.454165 59.092262
6 2 39.251724 35.603168 64.945755
7 3 28.136477 39.083008 67.011444
8 2 31.114491 40.346001 63.066177
9 2 34.354073 40.028751 59.864365
10 4 35.662117 37.518360 56.065903
ITEM: TIMESTEP
30
ITEM: NUMBER OF ATOMS
10
ITEM: BOX BOUNDS pp pp pp
0.000000e+00 7.059000e+01
0.000000e+00 7.418900e+01
0.000000e+00 1.135420e+02
ITEM: ATOMS id type x y z
1 1 26.581512 31.672522 55.514305
2 5 31.562675 25.906017 55.143410
3 6 38.158260 28.732639 61.811180
4 7 37.426338 30.230320 56.242332
5 8 43.254704 31.162361 60.569965
6 2 39.736546 36.774815 65.584450
7 3 28.336639 39.118057 66.418541
8 2 31.001148 40.424702 62.548504
9 2 34.554768 40.161236 59.517376
10 4 36.686222 37.758232 56.267544
ITEM: TIMESTEP
31
ITEM: NUMBER OF ATOMS
10
ITEM: BOX BOUNDS pp pp pp
0.000000e+00 7.044200e+01
0.000000e+00 7.421300e+01
0.000000e+00 1.137430e+02
ITEM: ATOMS id type x y z
1 1 26.739164 31.334599 55.529404
2 5 32.363644 25.875942 56.427540
3 6 39.212532 29.942125 62.593815
4 7 37.296505 31.240685 57.321808
5 8 43.447289 33.300777 60.630264
6 2 38.996548 38.466106 65.444466
7 3 27.570539 38.612656 66.448685
8 2 30.600372 40.978432 63.105984
9 2 34.064613 41.377609 60.197849
10 4 35.650841 38.799221 56.516842
ITEM: TIMESTEP
32
ITEM: NUMBER OF ATOMS
10
ITEM: BOX BOUNDS pp pp pp
0.000000e+00 7.062100e+01
0.000000e+00 7.433100e+01
0.000000e+00 1.133450e+02
ITEM: ATOMS id type x y z
1 1 26.953005 32.779720 54.806042
2 5 32.608452 26.612625 56.358105
3 6 38.272907 31.891390 62.752537
4 7 36.740376 32.004498 56.724308
5 8 43.469276 34.354225 59.686562
6 2 40.319809 40.016098 64.402275
7 3 28.613745 39.449905 65.752205
8 2 30.374716 41.565319 61.659046
9 2 33.792828 42.084106 58.175449
10 4 36.277111 40.173985 55.254650
ITEM: TIMESTEP
33
ITEM: NUMBER OF ATOMS
10
ITEM: BOX BOUNDS pp pp pp
0.000000e+00 7.063100e+01
0.000000e+00 7.428100e+01
0.000000e+00 1.133800e+02
ITEM: ATOMS id type x y z
1 1 29.492809 31.723190 54.205799
2 5 36.255524 27.305447 54.437519
3 6 39.264610 32.349876 62.183971
4 7 38.905666 33.396534 56.110291
5 8 45.138111 36.281525 59.992115
6 2 39.728497 40.437908 65.216400
7 3 27.859499 40.398426 65.145393
8 2 29.582386 42.919689 61.161182
9 2 32.807980 42.999043 58.015179
10 4 35.747490 41.500793 54.856503
ITEM: TIMESTEP
34
ITEM: NUMBER OF ATOMS
10
ITEM: BOX BOUNDS pp pp pp
0.000000e+00 7.060700e+01
0.000000e+00 7.431900e+01
0.000000e+00 1.132980e+02
ITEM: ATOMS id type x y z
1 1 28.325859 31.936401 55.370148
2 5 35.469910 25.973690 56.965496
3 6 40.454556 33.218369 61.781143
4 7 37.651077 32.129536 56.782700
5 8 43.669834 36.774452 58.057213
6 2 38.416039 40.104919 64.849747
7 3 26.446493 39.567879 65.865120
8 2 29.248154 41.968407 62.219719
9 2 32.633026 42.145042 58.981201
10 4 35.721519 40.992718 56.010128
ITEM: TIMESTEP
35
ITEM: NUMBER OF ATOMS
10
ITEM: BOX BOUNDS pp pp pp
0.000000e+00 7.048900e+01
0.000000e+00 7.441400e+01
0.000000e+00 1.135110e+02
ITEM: ATOMS id type x y z
1 1 28.775400 32.924316 54.803410
2 5 35.025833 27.319933 55.952087
3 6 40.706863 31.991587 62.579926
4 7 38.338165 32.714230 56.297474
5 8 44.551689 35.414413 60.153851
6 2 39.092743 38.177090 66.192230
7 3 27.110666 37.441341 65.542892
8 2 29.909203 40.670933 63.145206
9 2 33.705383 42.056961 60.664833
10 4 36.662212 41.601738 57.148075
ITEM: TIMESTEP
36
ITEM: NUMBER OF ATOMS
10
ITEM: BOX BOUNDS pp pp pp
0.000000e+00 7.047100e+01
0.000000e+00 7.427100e+01
0.000000e+00 1.134650e+02
ITEM: ATOMS id type x y z
1 1 28.517679 33.256737 54.908516
2 5 34.146740 28.130219 56.477070
3 6 39.057236 31.931116 64.054054
4 7 37.822655 33.547604 57.705482
5 8 43.843143 34.279510 62.180065
6 2 39.088562 39.052055 66.985023
7 3 27.497110 39.921379 66.832764
8 2 30.158672 42.379261 63.289986
9 2 34.065411 43.614941 60.333809
10 4 36.586334 42.069279 56.792976
ITEM: TIMESTEP
37
ITEM: NUMBER OF ATOMS
10
ITEM: BOX BOUNDS pp pp pp
0.000000e+00 7.051100e+01
0.000000e+00 7.430400e+01
0.000000e+00 1.135580e+02
ITEM: ATOMS id type x y z
1 1 24.899193 33.062744 55.244675
2 5 29.940884 27.877701 57.562603
3 6 35.888229 32.520206 64.377441
4 7 35.867252 33.026043 58.784225
5 8 41.063065 35.115368 64.048470
6 2 35.990768 41.527424 65.969337
7 3 24.496956 42.201847 68.089256
8 2 26.217705 43.299732 63.776031
9 2 29.954796 43.001179 59.852787
10 4 32.961445 41.316612 56.752251
ITEM: TIMESTEP
38
ITEM: NUMBER OF ATOMS
10
ITEM: BOX BOUNDS pp pp pp
0.000000e+00 7.047100e+01
0.000000e+00 7.428300e+01
0.000000e+00 1.136500e+02
ITEM: ATOMS id type x y z
1 1 27.084080 32.838013 55.511425
2 5 33.427719 28.750118 57.569096
3 6 37.406578 34.457283 64.834274
4 7 36.450153 34.138702 58.258583
5 8 42.691433 36.547497 62.416565
6 2 38.049072 42.213757 65.363319
7 3 26.361656 42.174576 67.319275
8 2 27.982050 44.301342 62.883263
9 2 30.943638 43.976280 59.377731
10 4 34.360374 41.691589 56.756142
ITEM: TIMESTEP
39
ITEM: NUMBER OF ATOMS
10
ITEM: BOX BOUNDS pp pp pp
0.000000e+00 7.044800e+01
0.000000e+00 7.428100e+01
0.000000e+00 1.135960e+02
ITEM: ATOMS id type x y z
1 1 29.397528 33.949787 56.832153
2 5 35.255341 28.358963 56.924900
3 6 40.911324 33.260201 63.273792
4 7 39.895405 34.013500 57.188435
5 8 45.269512 36.524273 61.947948
6 2 39.410362 40.674179 66.535454
7 3 28.022005 40.324684 66.110382
8 2 30.570721 42.925781 62.991070
9 2 34.811069 43.264984 60.232151
10 4 37.860321 41.693783 57.291042
ITEM: TIMESTEP
40
ITEM: NUMBER OF ATOMS
10
ITEM: BOX BOUNDS pp pp pp
0.000000e+00 7.056700e+01
0.000000e+00 7.432900e+01
0.000000e+00 1.133930e+02
ITEM: ATOMS id type x y z
1 1 31.487959 32.430271 56.441917
2 5 38.268974 27.865734 56.711067
3 6 42.458874 32.793289 63.330433
4 7 41.773197 33.630764 57.181461
5 8 46.899868 36.708153 61.875484
6 2 39.572117 39.388195 66.043411
7 3 28.081680 39.619995 65.580009
8 2 31.556911 42.032990 62.317852
9 2 35.491940 42.653545 59.715923
10 4 39.299118 41.347607 56.986973
ITEM: TIMESTEP
41
ITEM: NUMBER OF ATOMS
10
ITEM: BOX BOUNDS pp pp pp
0.000000e+00 7.062100e+01
0.000000e+00 7.426200e+01
0.000000e+00 1.133490e+02
ITEM: ATOMS id type x y z
1 1 31.457752 32.238979 55.511700
2 5 37.650730 27.393499 56.244831
3 6 41.507072 31.836496 63.765991
4 7 40.814240 33.035881 57.832874
5 8 45.947994 35.679802 62.904358
6 2 40.479759 39.800457 67.289764
7 3 29.263390 40.150757 65.686028
8 2 32.174831 42.931725 62.888100
9 2 36.135807 42.790333 59.840340
10 4 39.069256 40.873672 56.826778
ITEM: TIMESTEP
42
ITEM: NUMBER OF ATOMS
10
ITEM: BOX BOUNDS pp pp pp
0.000000e+00 7.067500e+01
0.000000e+00 7.426000e+01
0.000000e+00 1.131830e+02
ITEM: ATOMS id type x y z
1 1 31.483051 32.838696 55.084682
2 5 36.454777 27.027752 55.760471
3 6 42.085560 30.514507 63.175411
4 7 40.557606 31.691431 56.839207
5 8 47.760818 31.540527 60.329952
6 2 42.089310 36.889091 65.691109
7 3 30.620716 40.375542 67.193916
8 2 34.316734 41.585384 63.527359
9 2 38.034691 41.861652 60.200542
10 4 40.519432 40.358845 56.129562
ITEM: TIMESTEP
43
ITEM: NUMBER OF ATOMS
10
ITEM: BOX BOUNDS pp pp pp
0.000000e+00 7.052800e+01
0.000000e+00 7.426600e+01
0.000000e+00 1.134150e+02
ITEM: ATOMS id type x y z
1 1 30.257931 33.372498 56.390606
2 5 36.202293 27.905375 57.358143
3 6 43.631996 32.360451 61.718128
4 7 40.455029 32.558788 56.363861
5 8 47.961948 34.358311 57.759830
6 2 42.511238 38.889194 64.185684
7 3 30.601816 41.045319 65.459023
8 2 32.961647 42.364323 61.414852
9 2 36.788013 42.531696 58.433914
10 4 39.328350 40.646397 55.306168
ITEM: TIMESTEP
44
ITEM: NUMBER OF ATOMS
10
ITEM: BOX BOUNDS pp pp pp
0.000000e+00 7.051600e+01
0.000000e+00 7.438200e+01
0.000000e+00 1.132970e+02
ITEM: ATOMS id type x y z
1 1 31.134684 33.576000 55.451820
2 5 36.385666 29.041656 57.623207
3 6 44.215405 33.604805 62.743160
4 7 40.757214 33.069817 56.918915
5 8 47.782951 34.847759 58.713451
6 2 43.106869 39.819740 64.948311
7 3 31.839853 43.375839 66.030579
8 2 33.883427 44.396149 62.324871
9 2 37.738205 43.756382 58.672390
10 4 39.705238 41.772030 55.360291
ITEM: TIMESTEP
45
ITEM: NUMBER OF ATOMS
10
ITEM: BOX BOUNDS pp pp pp
0.000000e+00 7.038900e+01
0.000000e+00 7.434600e+01
0.000000e+00 1.135610e+02
ITEM: ATOMS id type x y z
1 1 30.605417 34.191757 56.183315
2 5 36.566101 29.747734 57.257561
3 6 42.961651 34.592037 63.418846
4 7 41.063950 34.690792 57.215744
5 8 48.049397 36.065155 59.962215
6 2 41.824600 40.062954 65.969559
7 3 29.760550 41.244888 65.768684
8 2 32.809952 43.580891 61.970543
9 2 36.653324 44.193462 58.973427
10 4 39.317043 42.093300 55.874126
ITEM: TIMESTEP
46
ITEM: NUMBER OF ATOMS
10
ITEM: BOX BOUNDS pp pp pp
0.000000e+00 7.038200e+01
0.000000e+00 7.446500e+01
0.000000e+00 1.134550e+02
ITEM: ATOMS id type x y z
1 1 31.897839 33.190258 54.555073
2 5 37.979931 29.652903 55.693829
3 6 44.301395 33.484158 62.820534
4 7 41.921181 34.776142 57.243694
5 8 48.797409 35.884941 60.403156
6 2 42.301056 39.703255 66.250031
7 3 30.421106 42.073471 66.166733
8 2 32.989872 43.529816 62.494106
9 2 37.543015 43.549725 59.997990
10 4 39.731525 41.646214 56.291981
ITEM: TIMESTEP
47
ITEM: NUMBER OF ATOMS
10
ITEM: BOX BOUNDS pp pp pp
0.000000e+00 7.020700e+01
0.000000e+00 7.433801e+01
0.000000e+00 1.139070e+02
ITEM: ATOMS id type x y z
1 1 31.633205 32.374180 55.985813
2 5 38.069931 29.125025 57.608070
3 6 43.628002 34.651577 64.442665
4 7 41.807842 34.629665 58.203728
5 8 48.650173 36.473843 61.298122
6 2 42.166409 41.458714 66.013084
7 3 30.088127 42.413418 66.143471
8 2 33.474686 44.516727 62.185478
9 2 37.127438 44.436737 58.942154
10 4 39.358067 41.318008 56.057877
ITEM: TIMESTEP
48
ITEM: NUMBER OF ATOMS
10
ITEM: BOX BOUNDS pp pp pp
0.000000e+00 7.034200e+01
0.000000e+00 7.445100e+01
0.000000e+00 1.135190e+02
ITEM: ATOMS id type x y z
1 1 32.536835 31.106565 55.838043
2 5 38.462162 28.134560 57.722763
3 6 42.998302 32.916069 65.011063
4 7 42.270771 32.924343 57.948322
5 8 47.899021 34.595539 62.954418
6 2 41.878983 39.987930 66.507622
7 3 30.310829 41.293484 66.044807
8 2 34.757664 41.879078 62.716358
9 2 37.738728 42.408680 59.420902
10 4 40.376144 39.840431 55.852119
ITEM: TIMESTEP
49
ITEM: NUMBER OF ATOMS
10
ITEM: BOX BOUNDS pp pp pp
0.000000e+00 7.051700e+01
0.000000e+00 7.446400e+01
0.000000e+00 1.133400e+02
ITEM: ATOMS id type x y z
1 1 34.014675 29.915733 55.660664
2 5 40.200470 26.684580 56.842819
3 6 45.200516 30.720345 64.457161
4 7 43.494629 32.243050 58.713894
5 8 49.325008 33.784344 63.308613
6 2 43.294495 38.913937 66.924881
7 3 31.375277 40.679562 65.630440
8 2 33.754436 41.591919 61.960957
9 2 38.572517 40.761589 59.394493
10 4 41.442429 38.508064 56.491390
ITEM: TIMESTEP
50
ITEM: NUMBER OF ATOMS
10
ITEM: BOX BOUNDS pp pp pp
0.000000e+00 7.055500e+01
0.000000e+00 7.462800e+01
0.000000e+00 1.128120e+02
ITEM: ATOMS id type x y z
1 1 33.095627 30.427240 55.240112
2 5 39.484882 28.059515 57.495533
3 6 43.257645 34.002426 64.771851
4 7 43.040829 34.301510 57.797924
5 8 48.386333 36.668495 62.260166
6 2 41.855072 41.844948 66.124680
7 3 29.699963 42.826866 66.204712
8 2 32.884220 43.806171 62.667309
9 2 35.314327 43.034309 58.886288
10 4 39.495438 39.821194 55.698494
ITEM: TIMESTEP
51
ITEM: NUMBER OF ATOMS
10
ITEM: BOX BOUNDS pp pp pp
0.000000e+00 7.053900e+01
0.000000e+00 7.504700e+01
0.000000e+00 1.124160e+02
ITEM: ATOMS id type x y z
1 1 32.781261 30.474419 55.568813
2 5 39.396576 27.369085 55.911953
3 6 44.370972 32.154499 62.814556
4 7 42.994625 32.926727 56.540874
5 8 48.994457 35.040630 60.814781
6 2 42.487396 39.699375 65.763229
7 3 31.064817 41.298737 65.518791
8 2 33.403477 43.374283 62.104950
9 2 36.552414 42.598923 58.878201
10 4 40.044983 39.404659 55.779427
ITEM: TIMESTEP
52
ITEM: NUMBER OF ATOMS
10
ITEM: BOX BOUNDS pp pp pp
0.000000e+00 7.037700e+01
0.000000e+00 7.520200e+01
0.000000e+00 1.121990e+02
ITEM: ATOMS id type x y z
1 1 32.816273 30.821693 53.337273
2 5 39.358177 27.666639 53.982155
3 6 43.478539 32.357941 62.136940
4 7 41.896294 34.718845 57.372257
5 8 47.249413 37.133507 61.121056
6 2 40.656132 41.045807 65.201645
7 3 29.374884 41.847450 65.114510
8 2 31.986250 44.309612 61.988335
9 2 34.619995 43.619907 58.573700
10 4 39.044064 40.305622 55.521461
ITEM: TIMESTEP
53
ITEM: NUMBER OF ATOMS
10
ITEM: BOX BOUNDS pp pp pp
0.000000e+00 7.052600e+01
0.000000e+00 7.523400e+01
0.000000e+00 1.120430e+02
ITEM: ATOMS id type x y z
1 1 32.056904 31.760508 54.503189
2 5 38.813923 27.362925 54.889553
3 6 44.276989 32.225590 61.395844
4 7 42.747894 34.114464 56.380604
5 8 47.402515 36.238838 61.129757
6 2 41.964798 40.365021 65.360016
7 3 30.290064 41.115425 65.277351
8 2 32.341938 43.684788 62.233318
9 2 34.851505 43.474083 58.519981
10 4 38.797421 40.769440 55.883629
ITEM: TIMESTEP
54
ITEM: NUMBER OF ATOMS
10
ITEM: BOX BOUNDS pp pp pp
0.000000e+00 7.035800e+01
0.000000e+00 7.541600e+01
0.000000e+00 1.120670e+02
ITEM: ATOMS id type x y z
1 1 35.008675 30.340252 53.326397
2 5 42.036720 27.127314 54.584091
3 6 46.441273 33.332878 61.519566
4 7 44.894978 34.626648 55.999359
5 8 50.181404 37.323620 60.213398
6 2 43.583839 39.650166 65.978882
7 3 32.373135 41.254044 63.855728
8 2 35.372452 43.618168 61.361511
9 2 38.509369 43.230118 58.338242
10 4 40.946308 40.311913 54.829498
ITEM: TIMESTEP
55
ITEM: NUMBER OF ATOMS
10
ITEM: BOX BOUNDS pp pp pp
0.000000e+00 7.039800e+01
0.000000e+00 7.538499e+01
0.000000e+00 1.120210e+02
ITEM: ATOMS id type x y z
1 1 33.988823 30.690401 54.109787
2 5 40.775211 27.108688 53.286827
3 6 44.116489 31.277447 61.016724
4 7 43.259487 33.840683 56.068947
5 8 48.749962 34.813221 60.422020
6 2 43.399784 38.800167 66.220406
7 3 32.066448 41.559856 65.742546
8 2 34.387215 43.750824 62.345676
9 2 38.038448 43.247448 59.259674
10 4 40.566223 40.262295 55.567905
ITEM: TIMESTEP
56
ITEM: NUMBER OF ATOMS
10
ITEM: BOX BOUNDS pp pp pp
0.000000e+00 7.031000e+01
0.000000e+00 7.533800e+01
0.000000e+00 1.121550e+02
ITEM: ATOMS id type x y z
1 1 33.652470 30.499546 55.335754
2 5 39.537773 24.959965 55.016563
3 6 44.178623 29.914217 62.025764
4 7 43.299526 32.056435 56.850861
5 8 48.762863 33.132214 61.196533
6 2 43.488354 37.304775 66.326233
7 3 32.467133 40.187107 64.902481
8 2 35.514759 42.315147 61.902233
9 2 39.014011 41.690128 58.748726
10 4 41.446228 38.720772 55.417583
ITEM: TIMESTEP
57
ITEM: NUMBER OF ATOMS
10
ITEM: BOX BOUNDS pp pp pp
0.000000e+00 7.018401e+01
0.000000e+00 7.563400e+01
0.000000e+00 1.119540e+02
ITEM: ATOMS id type x y z
1 1 34.238503 31.434069 54.138920
2 5 41.113510 26.276003 54.631905
3 6 45.125259 30.784348 62.659595
4 7 43.880333 32.980942 57.243034
5 8 49.382607 34.500774 61.313438
6 2 44.432575 39.193180 66.176414
7 3 33.435238 42.913773 65.421295
8 2 35.942108 44.070133 61.915752
9 2 40.001408 42.356762 59.498295
10 4 42.254246 39.415112 56.050655
ITEM: TIMESTEP
58
ITEM: NUMBER OF ATOMS
10
ITEM: BOX BOUNDS pp pp pp
0.000000e+00 7.017500e+01
0.000000e+00 7.561300e+01
0.000000e+00 1.120820e+02
ITEM: ATOMS id type x y z