ITEM: TIMESTEP
0
ITEM: NUMBER OF ATOMS
46
ITEM: BOX BOUNDS pp pp pp
0.000000e+00 7.073900e+01
0.000000e+00 7.358600e+01
0.000000e+00 1.143110e+02
ITEM: ATOMS id type x y z
1 1 37.117966 34.042568 25.850634
2 2 39.102726 35.694435 28.862734
3 3 40.286526 37.663502 33.267494
4 4 38.805668 41.675930 37.022709
5 3 36.452354 44.333965 40.152271
6 5 32.193893 43.674931 42.853817
7 3 28.141846 41.548592 45.787136
8 5 25.965899 37.924557 49.245571
9 3 25.821587 33.940659 52.375801
10 2 29.102766 30.804726 55.346973
11 9 34.214985 24.650587 55.594410
12 10 38.017315 28.470846 62.472683
13 11 41.489296 26.290733 58.993355
14 12 43.343323 29.532619 65.721680
15 5 37.900795 36.130768 65.228363
16 2 36.191753 39.970093 68.914352
17 4 32.774529 42.739807 71.951500
18 3 29.621946 43.069427 75.338699
19 3 26.719126 40.543030 78.962730
20 2 27.414801 37.311962 82.558990
21 4 29.091885 33.642811 85.583557
22 2 32.901630 33.813454 88.636505
23 3 36.567486 32.214237 92.781319
24 6 40.147938 34.618248 96.607315
25 7 34.432243 43.545750 98.229240
26 2 36.294022 43.978889 94.554543
27 3 38.463100 43.718597 89.130249
28 5 39.467617 39.394756 85.769691
29 3 38.986141 35.212879 82.525063
30 2 35.365768 32.773811 79.301224
31 2 31.521858 31.601734 76.126335
32 5 28.108797 32.097855 72.958359
33 3 26.469143 34.331909 68.979813
34 4 26.668041 37.975548 65.428116
35 5 28.819860 40.376053 61.971996
36 5 33.117512 41.053734 59.184063
37 3 36.779339 39.525234 56.499935
38 2 37.237572 36.204823 52.968483
39 4 36.603260 32.244835 49.611397
40 2 34.203293 31.516064 45.731056
41 4 31.238882 31.868015 41.892857
42 2 28.359718 35.618084 39.288162
43 5 27.133198 38.610241 36.344177
44 2 29.086441 41.752445 32.856712
45 3 31.717804 44.589554 30.078365
46 8 36.868080 44.625183 27.498362
ITEM: TIMESTEP
1
ITEM: NUMBER OF ATOMS
46
ITEM: BOX BOUNDS pp pp pp
0.000000e+00 7.062900e+01
0.000000e+00 7.349000e+01
0.000000e+00 1.144900e+02
ITEM: ATOMS id type x y z
1 1 37.050457 34.025764 25.993704
2 2 39.474113 35.602432 29.000662
3 3 41.204967 37.209797 33.315613
4 4 39.477413 39.601582 37.451309
5 3 36.492981 42.397453 40.909050
6 5 32.656765 43.650848 43.650780
7 3 28.100353 41.912292 45.873997
8 5 26.432678 38.685921 48.848347
9 3 26.172886 34.380379 52.244221
10 2 29.213638 31.407869 56.153427
11 9 35.881172 26.220781 56.420326
12 10 38.829166 29.306429 64.244781
13 11 41.168312 30.019201 59.136452
14 12 43.734138 31.991962 66.005272
15 5 37.894142 37.843834 65.913010
16 2 35.217804 40.193306 69.644829
17 4 33.233803 42.667522 73.494812
18 3 29.808405 43.251965 77.057968
19 3 27.036375 40.615417 80.694237
20 2 27.388891 37.815556 84.558083
21 4 28.195213 35.350361 88.591423
22 2 31.811417 32.608475 91.174568
23 3 36.257366 32.499619 93.490166
24 6 40.091190 34.700829 96.656670
25 7 34.329369 43.447178 98.316368
26 2 36.000011 44.431923 94.728264
27 3 38.494282 42.225338 90.881493
28 5 39.314430 38.415455 87.706291
29 3 38.303829 34.454350 84.548370
30 2 34.900776 32.090843 80.985443
31 2 31.276758 31.560156 77.738678
32 5 27.306133 32.304596 74.410576
33 3 24.955873 34.544712 70.869263
34 4 26.038641 38.486393 67.361794
35 5 28.219156 40.507061 63.930943
36 5 32.284920 41.567299 60.393909
37 3 35.537392 40.986946 57.440578
38 2 37.036900 36.977398 54.089550
39 4 37.551449 34.716782 50.275364
40 2 34.797981 32.517509 46.115906
41 4 31.655432 32.205204 42.271175
42 2 28.498842 34.299789 38.935417
43 5 27.785656 37.655037 36.188980
44 2 30.172010 41.328701 33.873268
45 3 32.508648 44.646641 30.786428
46 8 36.909252 44.641273 27.511076
ITEM: TIMESTEP
2
ITEM: NUMBER OF ATOMS
46
ITEM: BOX BOUNDS pp pp pp
0.000000e+00 7.063900e+01
0.000000e+00 7.345399e+01
0.000000e+00 1.146020e+02
ITEM: ATOMS id type x y z
1 1 37.007702 33.921310 25.967056
2 2 39.136318 35.531902 28.938288
3 3 40.718494 37.299568 33.283318
4 4 38.992329 41.138866 37.276287
5 3 36.108036 43.867741 40.624519
6 5 32.243370 43.548035 43.779232
7 3 28.508461 41.310654 46.365387
8 5 26.427168 38.273319 49.401810
9 3 26.184469 34.357826 52.781063
10 2 28.791597 31.643744 56.289028
11 9 34.702999 26.823708 56.115788
12 10 39.769348 29.966995 63.412773
13 11 41.922844 28.884144 58.832767
14 12 45.782303 32.374077 64.290474
15 5 39.323116 38.213024 65.778038
16 2 37.155373 40.805630 70.012604
17 4 35.014523 42.633293 74.075592
18 3 32.050545 43.021534 77.644844
19 3 28.142101 39.875256 80.730888
20 2 27.702648 37.432205 84.528694
21 4 28.348064 34.313370 88.383186
22 2 32.399986 32.098000 91.061516
23 3 36.658955 31.529873 93.042557
24 6 40.058849 34.616932 96.799706
25 7 34.353447 43.423302 98.483276
26 2 36.585060 43.402401 95.149872
27 3 39.404026 41.478931 91.603874
28 5 39.674671 37.425762 87.702240
29 3 38.849293 34.032032 84.121155
30 2 35.231617 30.984066 81.143845
31 2 31.513573 31.309746 78.422615
32 5 28.247612 32.491833 75.745628
33 3 26.529783 35.405235 72.034973
34 4 27.253128 38.178970 67.538704
35 5 29.367275 40.214325 63.716507
36 5 33.745605 41.303585 60.647427
37 3 36.476467 40.418808 57.175701
38 2 37.506023 36.041618 53.727585
39 4 37.228783 33.479481 49.864372
40 2 35.033451 31.994871 45.396774
41 4 31.399374 32.077972 41.576637
42 2 28.226427 35.429752 39.481834
43 5 27.349869 39.138416 37.297905
44 2 30.506224 43.028503 34.856548
45 3 32.704243 45.106457 31.278944
46 8 36.879299 44.610962 27.517256
ITEM: TIMESTEP
3
ITEM: NUMBER OF ATOMS
46
ITEM: BOX BOUNDS pp pp pp
0.000000e+00 7.066400e+01
0.000000e+00 7.341600e+01
0.000000e+00 1.146340e+02
ITEM: ATOMS id type x y z
1 1 37.088264 33.937813 25.992544
2 2 38.796242 35.191654 29.236830
3 3 40.530521 36.909000 33.173428
4 4 38.975155 39.898476 37.019798
5 3 36.476807 43.065731 39.877182
6 5 33.245361 43.570072 43.221004
7 3 29.568953 42.242897 46.080681
8 5 27.807131 39.241966 49.749180
9 3 26.997204 34.081886 52.196667
10 2 28.901560 31.361767 55.628262
11 9 34.912544 26.910107 57.794624
12 10 40.148582 30.756945 65.460114
13 11 42.037643 31.065294 60.298965
14 12 45.592045 33.167587 66.651558
15 5 39.463493 39.062023 67.271210
16 2 37.162197 41.699131 70.566933
17 4 34.090904 43.894646 74.218216
18 3 31.004234 43.506966 77.785034
19 3 28.141232 39.470493 80.798225
20 2 28.472410 35.907467 84.187904
21 4 29.982307 32.254913 87.467026
22 2 33.709492 31.439653 90.432762
23 3 37.461433 32.264519 92.632179
24 6 40.056507 34.601738 96.755646
25 7 34.371521 43.449112 98.490532
26 2 36.460499 44.186829 94.843277
27 3 39.388458 41.622097 91.387939
28 5 40.516281 37.878334 88.213196
29 3 40.207401 34.830475 84.316895
30 2 37.182091 31.980307 80.834953
31 2 33.952961 31.960758 77.545830
32 5 30.219795 32.588615 74.061882
33 3 28.126001 34.462162 70.265671
34 4 27.745745 38.483345 66.813850
35 5 29.308384 41.544765 63.648521
36 5 31.865477 42.346058 59.983246
37 3 36.414604 39.593136 57.765705
38 2 38.245152 36.030777 54.689274
39 4 37.220036 32.888187 51.541840
40 2 34.512524 31.702354 48.099697
41 4 31.185284 32.157684 44.230598
42 2 27.944986 35.255287 41.154861
43 5 27.174484 39.002819 38.532650
44 2 30.048044 41.987186 34.780289
45 3 32.013973 44.534462 30.987427
46 8 36.958721 44.604065 27.663355
ITEM: TIMESTEP
4
ITEM: NUMBER OF ATOMS
46
ITEM: BOX BOUNDS pp pp pp
0.000000e+00 7.065900e+01
0.000000e+00 7.332600e+01
0.000000e+00 1.147320e+02
ITEM: ATOMS id type x y z
1 1 37.007854 33.871834 26.006397
2 2 39.608532 35.200050 29.142393
3 3 40.803638 36.749176 33.584156
4 4 39.213970 40.640625 37.328880
5 3 36.051327 43.907482 40.055092
6 5 32.624989 44.470425 43.046448
7 3 28.646805 42.606243 46.126617
8 5 26.539242 39.558620 49.394501
9 3 26.406288 34.905617 51.811188
10 2 29.380880 32.424839 55.610722
11 9 35.431812 28.512630 58.032505
12 10 38.469482 31.992695 66.744125
13 11 41.137497 32.510689 61.669994
14 12 44.501648 35.494186 67.741806
15 5 38.956619 41.634411 67.830635
16 2 35.321003 43.231960 70.842636
17 4 31.709457 43.962967 73.669487
18 3 27.994276 42.510159 76.425110
19 3 26.886089 39.067085 80.244942
20 2 27.898027 35.500141 83.905022
21 4 29.997221 32.399338 86.792755
22 2 33.124744 32.139400 90.249535
23 3 37.186687 32.680676 92.596268
24 6 40.120586 34.508217 96.814110
25 7 34.361317 43.364750 98.447327
26 2 36.465401 44.287529 94.913986
27 3 39.597298 41.920231 91.134315
28 5 40.017075 38.747402 87.512596
29 3 39.427731 34.537735 84.572083
30 2 36.497337 32.447819 80.921082
31 2 33.301674 31.498581 76.682907
32 5 30.820919 32.068321 72.758713
33 3 27.075098 34.985710 69.597229
34 4 27.057505 39.848545 67.013344
35 5 28.736303 42.448593 63.769299
36 5 32.560665 43.255432 60.707874
37 3 36.359955 41.602249 58.037739
38 2 37.515739 37.920734 55.063675
39 4 36.589539 34.554070 51.755432
40 2 34.187252 32.800411 47.800159
41 4 32.603012 32.410397 43.322891
42 2 29.524017 34.334034 39.695015
43 5 27.769701 37.808075 37.510567
44 2 29.576185 41.230160 34.566978
45 3 32.449818 44.177124 31.069302
46 8 36.897423 44.418385 27.747503
ITEM: TIMESTEP
5
ITEM: NUMBER OF ATOMS
46
ITEM: BOX BOUNDS pp pp pp
0.000000e+00 7.085200e+01
0.000000e+00 7.318600e+01
0.000000e+00 1.146610e+02
ITEM: ATOMS id type x y z
1 1 37.066399 33.811222 25.945726
2 2 38.672970 35.233528 29.179489
3 3 39.687042 36.594902 33.538361
4 4 38.817608 40.522362 37.527702
5 3 35.802166 43.579113 39.904034
6 5 31.887447 44.046539 42.294510
7 3 27.965014 41.869171 44.936649
8 5 25.982288 37.985142 47.994141
9 3 25.846544 33.884472 51.206585
10 2 28.244957 31.877134 54.935272
11 9 35.551929 27.309229 56.663040
12 10 39.783504 30.011444 65.387650
13 11 39.911682 31.523106 59.581062
14 12 44.638073 32.852898 65.235298
15 5 38.867336 38.602577 67.120499
16 2 36.834621 40.359795 70.773964
17 4 33.894478 42.030651 74.324394
18 3 31.193136 41.834900 77.799271
19 3 28.507267 39.322697 81.222534
20 2 28.153286 34.228882 83.592026
21 4 30.076395 31.834564 86.778900
22 2 33.710972 31.896803 90.134987
23 3 37.480511 32.235477 92.580940
24 6 40.260822 34.425667 96.795120
25 7 34.417965 43.362549 98.435097
26 2 36.436199 44.030720 95.206947
27 3 39.041405 42.474846 91.525017
28 5 39.799911 38.145451 87.945671
29 3 39.901531 33.675358 84.511635
30 2 37.466011 32.033543 80.658539
31 2 33.660912 30.737194 77.407791
32 5 30.726534 31.027054 73.931335
33 3 27.635910 33.672901 70.811996
34 4 27.064676 38.184639 67.527214
35 5 28.773645 40.840317 63.887939
36 5 32.905010 41.691193 60.696575
37 3 35.507862 40.776943 57.234444
38 2 37.155899 36.217800 54.025684
39 4 36.559612 32.952019 50.645649
40 2 34.086121 31.595669 46.824295
41 4 30.870403 32.326294 43.118595
42 2 28.393547 34.409363 39.844501
43 5 27.731501 38.121925 36.510159
44 2 29.393425 41.341171 33.404308
45 3 31.810516 44.521576 30.464039
46 8 36.956192 44.391083 27.648384
ITEM: TIMESTEP
6
ITEM: NUMBER OF ATOMS
46
ITEM: BOX BOUNDS pp pp pp
0.000000e+00 7.095399e+01
0.000000e+00 7.328600e+01
0.000000e+00 1.143000e+02
ITEM: ATOMS id type x y z
1 1 37.210064 33.834835 25.891167
2 2 39.046425 35.318253 28.881590
3 3 40.629795 36.713688 33.194767
4 4 38.510254 40.608681 36.969040
5 3 35.320702 42.579250 39.932819
6 5 31.253937 41.628319 42.964283
7 3 27.141222 39.634521 45.629360
8 5 25.769518 36.094593 48.429733
9 3 26.239748 32.380463 52.081032
10 2 29.020350 30.458046 55.712418
11 9 36.143650 25.951513 57.707905
12 10 42.793411 31.523596 63.174759
13 11 41.339733 30.972269 57.680031
14 12 47.423790 34.704170 60.827602
15 5 41.113899 38.968113 65.228729
16 2 37.970139 41.231068 68.966270
17 4 35.490288 42.918026 72.920372
18 3 33.104843 42.777786 76.933128
19 3 30.262402 39.378860 79.671494
20 2 30.417717 34.692829 82.059044
21 4 30.716068 31.792070 85.756683
22 2 33.446854 31.084850 89.853691
23 3 37.209263 31.675144 92.937119
24 6 40.228733 34.488880 96.643372
25 7 34.495266 43.406158 98.286255
26 2 36.864906 43.690594 94.932777
27 3 39.493046 41.446648 91.414879
28 5 40.747208 37.578625 87.496292
29 3 41.858414 34.954395 83.654289
30 2 39.492432 32.129890 79.854866
31 2 35.702812 31.601225 76.368347
32 5 31.922577 31.627037 73.684540
33 3 28.753416 33.887562 70.065727
34 4 29.379993 37.457264 66.484406
35 5 32.132915 40.665882 63.635223
36 5 34.531616 41.335583 60.106579
37 3 37.042046 39.348694 56.294292
38 2 37.618488 34.723568 52.875713
39 4 36.694321 31.625162 49.264801
40 2 33.486122 29.990671 45.855770
41 4 30.085711 30.018799 42.151672
42 2 27.696280 33.404652 39.499535
43 5 27.395306 37.411022 36.924171
44 2 29.726053 41.056488 33.815228
45 3 32.354523 44.413200 30.684483
46 8 37.003525 44.488369 27.416973
ITEM: TIMESTEP
7
ITEM: NUMBER OF ATOMS
46
ITEM: BOX BOUNDS pp pp pp
0.000000e+00 7.105300e+01
0.000000e+00 7.345100e+01
0.000000e+00 1.139040e+02
ITEM: ATOMS id type x y z
1 1 37.248196 33.927711 25.644634
2 2 39.618507 35.651356 28.491718
3 3 41.256237 37.566040 32.712143
4 4 39.304276 39.873985 36.566380
5 3 35.830883 42.042953 39.965412
6 5 31.026485 41.844269 42.570358
7 3 27.582455 40.011181 44.864101
8 5 25.617741 35.622116 47.288727
9 3 25.869837 32.111843 50.608829
10 2 29.656330 29.951563 54.339901
11 9 35.388630 23.722828 55.702888
12 10 42.552998 27.530315 62.117760
13 11 41.500938 29.249907 57.272537
14 12 46.445408 31.960247 62.291069
15 5 40.322674 36.385731 65.577393
16 2 38.128563 39.298519 69.687370
17 4 35.184780 42.173229 73.324684
18 3 31.007141 41.809128 76.364647
19 3 28.159897 38.167610 78.406975
20 2 28.495762 34.381817 81.642487
21 4 29.543678 32.362827 85.760773
22 2 33.094841 31.686495 89.494354
23 3 36.951691 31.895205 92.756340
24 6 40.287853 34.510880 96.373047
25 7 34.636887 43.453640 97.963829
26 2 37.108315 43.701271 94.818520
27 3 39.665787 41.662785 91.226433
28 5 40.476852 37.452644 87.408157
29 3 40.226463 34.136765 83.550491
30 2 37.940681 31.593653 79.552750
31 2 33.874386 30.731676 76.595291
32 5 30.523132 31.226599 73.637688
33 3 28.951530 32.872276 69.737999
34 4 28.691145 36.326679 66.217896
35 5 30.474768 38.800335 62.804459
36 5 33.957111 39.874935 59.177788
37 3 36.959267 38.837662 55.558807
38 2 37.232796 34.518124 52.037277
39 4 36.523689 31.302359 48.043427
40 2 34.182476 30.498758 43.905079
41 4 30.499792 30.436367 40.566574
42 2 27.649803 33.695354 38.284897
43 5 27.199677 37.681236 35.875694
44 2 29.946051 41.465347 33.446495
45 3 32.207470 44.491306 30.276197
46 8 37.020878 44.587852 27.206894
ITEM: TIMESTEP
8
ITEM: NUMBER OF ATOMS
46
ITEM: BOX BOUNDS pp pp pp
0.000000e+00 7.079800e+01
0.000000e+00 7.371200e+01
0.000000e+00 1.138970e+02
ITEM: ATOMS id type x y z
1 1 37.108601 34.064125 25.655533
2 2 39.080383 35.581177 28.834484
3 3 40.239300 37.529564 33.281357
4 4 38.597103 40.192299 37.196476
5 3 36.197617 42.717964 40.603199
6 5 31.507685 42.815865 43.222401
7 3 26.927189 41.038185 45.355431
8 5 24.577463 37.000237 47.442337
9 3 24.840534 32.752151 50.077324
10 2 27.686323 31.203537 54.217457
11 9 34.373577 27.048216 55.588543
12 10 41.739986 29.483423 62.403111
13 11 39.584713 31.957491 57.479443
14 12 45.601395 34.107174 61.814583
15 5 39.941086 37.277683 66.129608
16 2 37.833061 39.924877 69.077202
17 4 35.169975 42.146461 72.508659
18 3 30.911289 42.545773 75.085403
19 3 28.691662 40.599201 79.093376
20 2 28.319962 37.600189 83.391762
21 4 29.691269 34.746685 86.949234
22 2 33.436981 32.210735 89.916542
23 3 36.972179 32.093052 92.824440
24 6 40.164856 34.692928 96.357437
25 7 34.488686 43.561466 98.097412
26 2 36.509258 44.159866 94.844170
27 3 39.589008 42.103050 91.141090
28 5 40.849663 38.927502 87.790131
29 3 39.775574 35.421967 83.760155
30 2 36.763313 32.692375 80.044884
31 2 32.923683 31.179552 76.453499
32 5 29.464333 32.246078 73.528412
33 3 28.010794 34.357933 69.499969
34 4 28.253918 38.203171 65.769295
35 5 30.408838 40.780102 62.312233
36 5 33.895992 41.323368 58.901245
37 3 35.774639 39.979141 54.974297
38 2 36.201828 35.146530 51.891106
39 4 35.221523 32.071529 48.155891
40 2 32.446301 31.070919 44.436558
41 4 28.956526 31.625145 40.953491
42 2 26.895473 35.547539 38.806515
43 5 26.815161 39.233864 36.023174
44 2 29.690243 42.815056 33.817509
45 3 32.243076 44.860077 30.439524
46 8 36.948452 44.711956 27.242586
ITEM: TIMESTEP
9
ITEM: NUMBER OF ATOMS
46
ITEM: BOX BOUNDS pp pp pp
0.000000e+00 7.087900e+01
0.000000e+00 7.362100e+01
0.000000e+00 1.139060e+02
ITEM: ATOMS id type x y z
1 1 37.140785 34.002892 25.696995
2 2 39.547951 35.577911 28.599361
3 3 40.020271 36.814072 33.022568
4 4 38.596008 40.440052 36.696579
5 3 35.406872 43.205048 39.251740
6 5 31.810204 42.847992 42.609982
7 3 27.542915 40.903637 45.309071
8 5 25.651012 36.990067 48.368191
9 3 25.526957 33.105042 51.935177
10 2 28.118740 30.850216 55.977180
11 9 33.517864 25.313940 56.919800
12 10 40.692875 28.145853 63.207195
13 11 38.738880 30.027855 58.276505
14 12 44.881813 32.288006 62.412365
15 5 40.188545 36.964222 66.004761
16 2 39.006481 40.764874 67.973007
17 4 36.947861 44.510506 71.086555
18 3 34.100849 45.365833 74.445061
19 3 31.795570 43.419781 78.693115
20 2 30.725512 40.711838 83.521133
21 4 30.267759 37.162479 87.245544
22 2 33.835350 34.634892 89.687027
23 3 36.943516 33.057770 92.287407
24 6 40.163109 34.762962 96.354271
25 7 34.452579 43.597595 98.036888
26 2 35.863918 44.764336 94.584686
27 3 39.457748 44.280846 91.207024
28 5 41.258629 40.267681 87.964508
29 3 40.941399 36.296719 84.448555
30 2 37.802723 33.515160 81.327255
31 2 34.368156 33.735550 77.929855
32 5 30.492256 35.410381 74.793198
33 3 28.510569 36.823929 70.564186
34 4 28.648132 39.856773 66.445976
35 5 30.400608 41.216812 62.478104
36 5 34.493771 40.564434 59.073978
37 3 37.041477 38.828121 55.826900
38 2 37.146156 34.174839 52.862377
39 4 36.123295 31.128033 49.295715
40 2 32.315060 30.030645 46.236752
41 4 29.778669 31.077164 42.604031
42 2 27.635197 34.008030 38.949612
43 5 27.128510 38.012989 36.248142
44 2 29.270634 42.015144 33.613358
45 3 32.131817 44.754673 30.496069
46 8 36.966114 44.592197 27.203512
ITEM: TIMESTEP
10
ITEM: NUMBER OF ATOMS
46
ITEM: BOX BOUNDS pp pp pp
0.000000e+00 7.095200e+01
0.000000e+00 7.367600e+01
0.000000e+00 1.138110e+02
ITEM: ATOMS id type x y z
1 1 37.193783 34.095589 25.570747
2 2 39.382523 35.346226 28.701015
3 3 39.973415 36.688236 33.200787
4 4 37.719536 39.544777 36.850552
5 3 34.966953 42.820324 39.691467
6 5 30.798716 42.952351 42.134209
7 3 26.893427 40.841290 45.086830
8 5 25.287588 37.764679 48.717987
9 3 25.823309 33.830898 51.553219
10 2 29.426064 32.277706 55.298584
11 9 34.274467 26.735508 56.855808
12 10 42.796230 28.461353 62.135830
13 11 39.349163 31.116632 58.222137
14 12 46.230648 32.418736 60.281166
15 5 42.248817 36.789944 66.048195
16 2 40.501553 39.121418 69.980530
17 4 37.815968 42.114960 73.083961
18 3 34.975388 43.599262 76.595665
19 3 30.649036 42.320911 80.255791
20 2 28.894266 39.639809 83.742203
21 4 29.046183 35.659340 86.903503
22 2 32.506287 33.554321 89.801666
23 3 36.486885 32.922134 92.691772
24 6 40.260757 34.713219 96.320206
25 7 34.524448 43.558613 97.989723
26 2 36.515923 44.538330 94.666245
27 3 39.613480 43.170456 91.298126
28 5 40.232147 39.278439 87.888695
29 3 39.367325 35.473427 84.056473
30 2 36.040001 32.418007 80.625504
31 2 32.482330 32.475292 77.207199
32 5 29.598814 33.346397 74.006187
33 3 29.121834 36.044117 69.933388
34 4 31.230263 40.540577 67.144890
35 5 33.741924 42.820641 64.020798
36 5 36.204174 42.224396 60.183868
37 3 38.123219 39.795486 56.131992
38 2 37.672649 34.981091 52.339550
39 4 36.219261 32.688656 48.341663
40 2 32.712399 30.947144 44.558113
41 4 30.037121 31.313141 41.150330
42 2 26.662619 34.865570 38.501663
43 5 26.024647 38.054016 35.838310
44 2 28.966198 41.585876 32.990101
45 3 32.113899 44.475243 29.908705
46 8 37.009850 44.713634 27.248014
ITEM: TIMESTEP
11
ITEM: NUMBER OF ATOMS
46
ITEM: BOX BOUNDS pp pp pp
0.000000e+00 7.105200e+01
0.000000e+00 7.354800e+01
0.000000e+00 1.137580e+02
ITEM: ATOMS id type x y z
1 1 37.332184 33.994835 25.544376
2 2 39.184956 35.186874 28.739168
3 3 41.421967 37.238071 32.806709
4 4 39.694874 40.334213 36.371452
5 3 36.705250 43.050335 40.051525
6 5 32.413696 43.210732 42.896778
7 3 28.893293 40.460754 45.267838
8 5 26.978039 36.682594 48.392410
9 3 27.527300 33.354565 51.913315
10 2 29.652269 30.853291 55.934845
11 9 36.124725 25.242926 57.450665
12 10 40.360054 30.437284 64.164246
13 11 39.378902 30.757851 57.772133
14 12 45.946358 32.603912 61.765491
15 5 41.428230 38.066097 66.755592
16 2 39.952320 41.546230 70.044960
17 4 36.808575 44.253914 72.520645
18 3 32.494762 44.975212 75.339973
19 3 29.657120 42.203911 79.342735
20 2 29.726860 39.996128 83.475044
21 4 30.386627 36.088669 86.475777
22 2 34.529625 33.730904 88.828682
23 3 37.421928 32.391766 92.026062
24 6 40.298656 34.647053 96.285477
25 7 34.585716 43.507702 97.876213
26 2 36.540382 44.257851 94.405151
27 3 39.894150 43.685822 91.126297
28 5 41.334290 40.412670 87.635086
29 3 40.915779 36.840130 83.516594
30 2 38.137669 33.747501 80.141808
31 2 34.022675 33.488369 77.038803
32 5 30.994045 34.075840 73.902687
33 3 29.475836 36.920601 70.239471
34 4 30.047483 40.677818 66.840393
35 5 32.670048 42.768646 63.299164
36 5 35.680481 42.072128 59.712734
37 3 38.163815 38.823273 56.268787
38 2 38.407936 34.150257 52.953606
39 4 37.366508 31.285601 49.537296
40 2 34.501804 29.675413 46.042484
41 4 31.175768 31.288769 42.589394
42 2 29.155958 34.130737 39.763073
43 5 27.975744 37.894222 36.861351
44 2 30.520098 41.532696 34.006523
45 3 32.452900 44.396408 30.669796
46 8 37.084793 44.631775 27.146336
ITEM: TIMESTEP
12
ITEM: NUMBER OF ATOMS
46
ITEM: BOX BOUNDS pp pp pp
0.000000e+00 7.119300e+01
0.000000e+00 7.355400e+01
0.000000e+00 1.135030e+02
ITEM: ATOMS id type x y z
1 1 37.426609 33.933201 25.373896
2 2 39.101887 35.520565 28.604462
3 3 40.636322 37.190567 32.960308
4 4 38.787560 40.175369 36.227081
5 3 35.896614 43.150917 38.956879
6 5 32.186150 43.097950 41.979710
7 3 28.796867 40.570328 45.496449
8 5 26.269842 37.692375 48.792862
9 3 26.002304 33.548843 50.918514
10 2 28.059601 31.125462 54.791477
11 9 34.125576 26.203203 56.787720
12 10 39.783569 30.050083 64.280029
13 11 38.096069 30.748552 58.268379
14 12 44.420639 32.180820 62.282433
15 5 38.893642 38.181767 65.814713
16 2 37.557735 42.494839 68.373718
17 4 37.397171 44.674751 72.283058
18 3 34.228580 45.688148 76.167595
19 3 30.097500 43.119610 79.086914
20 2 29.744398 40.170536 82.754242
21 4 30.493706 35.809994 85.746094
22 2 34.459599 33.985615 88.726768
23 3 37.385433 32.919697 91.808243
24 6 40.341717 34.682568 96.119354
25 7 34.651157 43.505417 97.790909
26 2 36.607586 44.546146 94.446869
27 3 40.474613 43.632748 91.105087
28 5 41.406811 40.299511 87.588646
29 3 40.873611 37.064072 83.909172
30 2 37.507118 34.196312 80.371429
31 2 34.270649 33.698471 77.019814
32 5 31.027079 35.071747 73.935287
33 3 27.810581 37.728729 71.333702
34 4 27.648275 40.995186 67.092995
35 5 29.509546 41.788620 62.766418
36 5 33.423237 41.606846 59.554955
37 3 36.933167 38.649704 56.810047
38 2 37.126740 34.188812 53.164242
39 4 37.095581 32.324589 48.988277
40 2 34.184158 30.212866 45.287861
41 4 31.077579 31.342739 41.768272
42 2 27.910839 34.581615 39.110909
43 5 27.127438 37.791840 36.080151
44 2 29.909340 41.891594 33.415974
45 3 32.125992 44.805252 30.178989
46 8 37.197510 44.683254 27.098066
ITEM: TIMESTEP
13
ITEM: NUMBER OF ATOMS
46
ITEM: BOX BOUNDS pp pp pp
0.000000e+00 7.107000e+01
0.000000e+00 7.365700e+01
0.000000e+00 1.135040e+02
ITEM: ATOMS id type x y z
1 1 37.331585 34.014431 25.393736
2 2 39.133652 35.467598 28.463623
3 3 41.429657 37.171352 32.354401
4 4 39.503185 39.793659 36.042645
5 3 36.916813 42.293705 39.413898
6 5 32.364368 43.189507 42.228172
7 3 28.307646 41.635563 45.471485
8 5 26.172848 38.323231 48.640144
9 3 27.751650 35.061619 51.949421
10 2 29.316500 32.778622 56.081150
11 9 34.073360 27.143932 57.254818
12 10 39.882450 30.005180 64.672913
13 11 39.741711 30.974707 58.348759
14 12 45.200047 31.373663 63.617130
15 5 40.757160 37.363991 67.641319
16 2 39.444267 40.882118 70.648209
17 4 36.361118 43.882328 73.532898
18 3 32.029823 44.410793 76.359047
19 3 29.092003 41.679859 79.727180
20 2 28.906387 39.366146 83.920273
21 4 29.504276 36.625458 87.494728
22 2 33.214603 33.321186 90.151146
23 3 37.119587 32.401470 92.737930
24 6 40.347126 34.633732 96.183006
25 7 34.513649 43.520149 97.681435
26 2 37.039284 44.151703 94.394035
27 3 40.097134 42.414406 90.901184
28 5 40.991207 39.176712 87.730484
29 3 40.013771 35.333664 84.489937
30 2 36.546566 32.483341 81.019852
31 2 33.101570 32.702980 77.454742
32 5 29.956470 34.167519 74.186905
33 3 28.731316 36.401394 70.440285
34 4 29.646925 39.388805 66.274033
35 5 32.607487 42.064919 62.971100
36 5 36.663029 41.346813 60.433990
37 3 38.961941 38.984032 57.476234
38 2 39.225216 35.102005 53.877014
39 4 37.311852 32.807323 49.769238
40 2 34.140659 31.762945 45.893993
41 4 30.840336 31.134190 41.831142
42 2 28.426828 33.924721 38.912373
43 5 27.790537 37.740475 36.228317
44 2 30.458490 41.075092 33.353668
45 3 32.201664 44.286526 29.994343
46 8 37.136997 44.684204 27.004995
ITEM: TIMESTEP
14
ITEM: NUMBER OF ATOMS
46
ITEM: BOX BOUNDS pp pp pp
0.000000e+00 7.111800e+01
0.000000e+00 7.361400e+01
0.000000e+00 1.135420e+02
ITEM: ATOMS id type x y z
1 1 37.279240 34.017654 25.445898
2 2 39.086586 35.413300 28.716593
3 3 40.760799 37.115582 32.676193
4 4 39.470001 40.320930 36.316452
5 3 36.769283 43.297832 39.372963
6 5 32.780178 43.635239 42.165962
7 3 29.030714 42.319401 45.242146
8 5 26.771208 38.930756 49.005943
9 3 26.735819 35.127060 52.139709
10 2 28.956022 32.637409 55.950844
11 9 34.004604 26.521650 56.757252
12 10 37.857571 30.977581 64.678925
13 11 38.338448 31.013092 58.296795
14 12 44.021507 32.201237 63.393044
15 5 40.140835 38.423908 66.915443
16 2 37.826229 41.909451 69.756500
17 4 35.172249 44.456352 72.832390
18 3 32.373970 45.007023 76.338234
19 3 29.386482 42.445427 80.065536
20 2 29.141050 39.302155 83.969284
21 4 29.639040 34.988628 86.742188
22 2 33.321812 32.899216 89.556366
23 3 36.941830 32.807766 92.598373
24 6 40.361027 34.737686 96.151802
25 7 34.574478 43.498112 97.755867
26 2 36.596584 44.492798 94.354385
27 3 39.324081 43.152679 90.607063
28 5 40.598003 39.408722 87.141396
29 3 40.348511 36.449993 83.506897
30 2 37.153156 33.751183 80.484467
31 2 32.876991 33.732716 78.279488
32 5 29.602140 34.402775 74.882736
33 3 27.460438 36.527229 70.785553
34 4 28.491478 39.932686 66.887657
35 5 31.430357 41.301121 62.752205
36 5 35.143040 41.542068 59.567085
37 3 38.078178 39.983227 56.633320
38 2 37.881531 35.114975 53.521000
39 4 36.728558 32.368710 49.994663
40 2 33.742699 32.015392 46.119213
41 4 30.354980 32.158752 42.591030
42 2 28.042395 35.530048 39.677948
43 5 27.670179 39.070179 36.628483
44 2 29.885794 41.692017 32.916946
45 3 32.003773 44.492401 29.758036
46 8 37.098679 44.635677 27.039694
ITEM: TIMESTEP
15
ITEM: NUMBER OF ATOMS
46
ITEM: BOX BOUNDS pp pp pp
0.000000e+00 7.116600e+01
0.000000e+00 7.354900e+01
0.000000e+00 1.135720e+02
ITEM: ATOMS id type x y z
1 1 37.291054 34.005718 25.450689
2 2 39.148144 35.401447 28.500580
3 3 40.788254 37.029186 32.574078
4 4 39.082317 39.380074 36.656025
5 3 36.314816 42.250877 39.831093
6 5 32.004814 43.040375 42.033550
7 3 28.438887 41.718502 44.920719
8 5 26.078613 38.430084 48.502762
9 3 25.642527 34.742657 51.671509
10 2 27.691677 33.504456 56.541763
11 9 32.321838 27.914972 58.070938
12 10 37.659985 31.925791 64.495506
13 11 37.818577 32.005352 58.247723
14 12 44.411102 33.703987 62.736301
15 5 40.677689 39.493866 66.624786
16 2 37.940022 42.930561 68.910866
17 4 34.901043 45.553516 71.864777
18 3 30.949020 46.136543 75.132210
19 3 28.388695 43.588196 78.609612
20 2 29.118711 40.555172 82.824615
21 4 29.993368 36.847946 85.946968
22 2 33.544033 33.600979 88.689354
23 3 37.397003 32.620621 92.068420
24 6 40.429829 34.614342 96.167702
25 7 34.626099 43.536636 97.839188
26 2 37.426437 44.106548 94.718918
27 3 40.727066 42.447041 91.344849
28 5 41.413116 39.689747 87.370285
29 3 40.594219 37.453133 82.868622
30 2 36.640896 35.346451 79.657631
31 2 32.439930 34.460468 76.680756
32 5 28.521519 35.388687 73.362213
33 3 26.879852 37.864395 69.589523
34 4 28.750347 40.922382 65.275436
35 5 31.804001 42.634418 61.889034
36 5 35.293076 42.063221 59.052483
37 3 37.877754 38.791882 56.465000
38 2 37.314640 34.953995 53.115295
39 4 35.672749 31.350372 49.638809
40 2 33.376492 30.834810 45.694965
41 4 29.802917 31.296305 42.002041
42 2 27.610065 33.994125 39.112823
43 5 27.383705 38.105896 36.437115
44 2 29.950922 41.534054 33.405148
45 3 32.296104 44.467609 30.154533
46 8 37.133579 44.618336 27.001547
ITEM: TIMESTEP
16
ITEM: NUMBER OF ATOMS
46
ITEM: BOX BOUNDS pp pp pp
0.000000e+00 7.113000e+01
0.000000e+00 7.363800e+01
0.000000e+00 1.135130e+02
ITEM: ATOMS id type x y z
1 1 37.288361 34.046730 25.387068
2 2 39.540653 35.964680 28.349478
3 3 40.383854 37.328037 32.688465
4 4 38.618950 40.024479 36.799801
5 3 35.790020 43.150257 39.677788
6 5 31.797071 43.371883 42.731419
7 3 27.662729 41.268482 45.322315
8 5 26.267849 37.521980 48.274662
9 3 26.922035 34.085617 51.757122
10 2 28.349411 32.285149 56.022110
11 9 33.442726 26.208620 56.141457
12 10 38.788277 30.082050 62.869678
13 11 39.129898 30.868191 56.813580
14 12 45.102867 32.037762 61.948708
15 5 41.192482 37.563072 66.236969
16 2 40.211498 41.447132 69.345688
17 4 37.796585 44.699425 72.318626
18 3 34.038792 45.831554 75.160042
19 3 30.254787 42.987156 78.361229
20 2 29.753996 40.055294 82.350098
21 4 30.120182 37.276611 86.299110
22 2 33.461525 34.067490 89.322449
23 3 37.056606 32.805943 92.310028
24 6 40.371422 34.672958 96.095161
25 7 34.612873 43.628330 97.778984
26 2 36.994831 44.448650 94.682060
27 3 40.293526 43.095581 91.393890
28 5 41.293972 39.967522 87.834122
29 3 40.571362 36.237740 84.157684
30 2 36.989536 33.822453 80.269699
31 2 32.927898 34.272205 77.359673
32 5 30.200806 35.416058 74.146698
33 3 28.801811 38.372334 70.238625
34 4 29.897869 41.426109 66.041191
35 5 32.477245 42.183994 62.347244
36 5 36.572613 40.697304 59.451080
37 3 38.749691 38.346809 56.369247
38 2 38.266018 34.733395 52.618603
39 4 37.127033 32.253777 48.522221
40 2 33.017887 30.880081 45.211262